
     Program PWSCF v.6.5 starts on 16May2020 at 23: 4:50 

     This program is part of the open-source Quantum ESPRESSO suite
     for quantum simulation of materials; please cite
         "P. Giannozzi et al., J. Phys.:Condens. Matter 21 395502 (2009);
         "P. Giannozzi et al., J. Phys.:Condens. Matter 29 465901 (2017);
          URL http://www.quantum-espresso.org", 
     in publications or presentations arising from this work. More details at
     http://www.quantum-espresso.org/quote

     Parallel version (MPI), running on     8 processors

     MPI processes distributed on     1 nodes
     R & G space division:  proc/nbgrp/npool/nimage =       8
     Reading input from si_relax.in

     Current dimensions of program PWSCF are:
     Max number of different atomic species (ntypx) = 10
     Max number of k-points (npk) =  40000
     Max angular momentum in pseudopotentials (lmaxx) =  3

     Subspace diagonalization in iterative solution of the eigenvalue problem:
     a serial algorithm will be used


     Parallelization info
     --------------------
     sticks:   dense  smooth     PW     G-vecs:    dense   smooth      PW
     Min          74      74     23                 1197     1197     209
     Max          76      76     24                 1198     1198     212
     Sum         595     595    187                 9577     9577    1687



     bravais-lattice index     =            2
     lattice parameter (alat)  =      12.0000  a.u.
     unit-cell volume          =     432.0000 (a.u.)^3
     number of atoms/cell      =            2
     number of atomic types    =            1
     number of electrons       =         8.00
     number of Kohn-Sham states=            4
     kinetic-energy cutoff     =      30.0000  Ry
     charge density cutoff     =     120.0000  Ry
     convergence threshold     =      1.0E-08
     mixing beta               =       0.7000
     number of iterations used =            8  plain     mixing
     Exchange-correlation= SLA-PZ-NOGX-NOGC
                           (   1   1   0   0   0   0   0)
     nstep                     =           50


     celldm(1)=  12.000000  celldm(2)=   0.000000  celldm(3)=   0.000000
     celldm(4)=   0.000000  celldm(5)=   0.000000  celldm(6)=   0.000000

     crystal axes: (cart. coord. in units of alat)
               a(1) = (  -0.500000   0.000000   0.500000 )  
               a(2) = (   0.000000   0.500000   0.500000 )  
               a(3) = (  -0.500000   0.500000   0.000000 )  

     reciprocal axes: (cart. coord. in units 2 pi/alat)
               b(1) = ( -1.000000 -1.000000  1.000000 )  
               b(2) = (  1.000000  1.000000  1.000000 )  
               b(3) = ( -1.000000  1.000000 -1.000000 )  


     PseudoPot. # 1 for Si read from file:
     ../pseudo/Si.pz-hgh.UPF
     MD5 check sum: cb84f9316d534d44e00c22e249e735ab
     Pseudo is Norm-conserving, Zval =  4.0
     Generated in analytical, separable form
     Using radial grid of 1141 points,  3 beta functions with: 
                l(1) =   0
                l(2) =   0
                l(3) =   1

     atomic species   valence    mass     pseudopotential
        Si             4.00    28.08550     Si( 1.00)

     48 Sym. Ops., with inversion, found (24 have fractional translation)



   Cartesian axes

     site n.     atom                  positions (alat units)
         1           Si  tau(   1) = (   0.0000000   0.0000000   0.0000000  )
         2           Si  tau(   2) = (   0.2500000   0.2500000   0.2500000  )

     number of k points=    47
                       cart. coord. in units 2pi/alat
        k(    1) = (   0.0000000   0.0000000   0.0000000), wk =   0.0020000
        k(    2) = (  -0.1000000   0.1000000  -0.1000000), wk =   0.0160000
        k(    3) = (  -0.2000000   0.2000000  -0.2000000), wk =   0.0160000
        k(    4) = (  -0.3000000   0.3000000  -0.3000000), wk =   0.0160000
        k(    5) = (  -0.4000000   0.4000000  -0.4000000), wk =   0.0160000
        k(    6) = (   0.5000000  -0.5000000   0.5000000), wk =   0.0080000
        k(    7) = (   0.0000000   0.2000000   0.0000000), wk =   0.0120000
        k(    8) = (  -0.1000000   0.3000000  -0.1000000), wk =   0.0480000
        k(    9) = (  -0.2000000   0.4000000  -0.2000000), wk =   0.0480000
        k(   10) = (  -0.3000000   0.5000000  -0.3000000), wk =   0.0480000
        k(   11) = (   0.6000000  -0.4000000   0.6000000), wk =   0.0480000
        k(   12) = (   0.5000000  -0.3000000   0.5000000), wk =   0.0480000
        k(   13) = (   0.4000000  -0.2000000   0.4000000), wk =   0.0480000
        k(   14) = (   0.3000000  -0.1000000   0.3000000), wk =   0.0480000
        k(   15) = (   0.2000000   0.0000000   0.2000000), wk =   0.0240000
        k(   16) = (   0.0000000   0.4000000   0.0000000), wk =   0.0120000
        k(   17) = (  -0.1000000   0.5000000  -0.1000000), wk =   0.0480000
        k(   18) = (  -0.2000000   0.6000000  -0.2000000), wk =   0.0480000
        k(   19) = (   0.7000000  -0.3000000   0.7000000), wk =   0.0480000
        k(   20) = (   0.6000000  -0.2000000   0.6000000), wk =   0.0480000
        k(   21) = (   0.5000000  -0.1000000   0.5000000), wk =   0.0480000
        k(   22) = (   0.4000000   0.0000000   0.4000000), wk =   0.0240000
        k(   23) = (   0.0000000   0.6000000   0.0000000), wk =   0.0120000
        k(   24) = (  -0.1000000   0.7000000  -0.1000000), wk =   0.0480000
        k(   25) = (   0.8000000  -0.2000000   0.8000000), wk =   0.0480000
        k(   26) = (   0.7000000  -0.1000000   0.7000000), wk =   0.0480000
        k(   27) = (   0.6000000  -0.0000000   0.6000000), wk =   0.0240000
        k(   28) = (   0.0000000   0.8000000   0.0000000), wk =   0.0120000
        k(   29) = (   0.9000000  -0.1000000   0.9000000), wk =   0.0480000
        k(   30) = (   0.8000000   0.0000000   0.8000000), wk =   0.0240000
        k(   31) = (   0.0000000  -1.0000000   0.0000000), wk =   0.0060000
        k(   32) = (  -0.2000000   0.4000000   0.0000000), wk =   0.0480000
        k(   33) = (  -0.3000000   0.5000000  -0.1000000), wk =   0.0960000
        k(   34) = (   0.6000000  -0.4000000   0.8000000), wk =   0.0960000
        k(   35) = (   0.5000000  -0.3000000   0.7000000), wk =   0.0480000
        k(   36) = (  -0.2000000   0.6000000   0.0000000), wk =   0.0480000
        k(   37) = (   0.7000000  -0.3000000   0.9000000), wk =   0.0960000
        k(   38) = (   0.6000000  -0.2000000   0.8000000), wk =   0.0960000
        k(   39) = (   0.5000000  -0.1000000   0.7000000), wk =   0.0960000
        k(   40) = (   0.4000000   0.0000000   0.6000000), wk =   0.0480000
        k(   41) = (   0.8000000  -0.2000000   1.0000000), wk =   0.0480000
        k(   42) = (   0.7000000  -0.1000000   0.9000000), wk =   0.0960000
        k(   43) = (   0.6000000   0.0000000   0.8000000), wk =   0.0480000
        k(   44) = (  -0.2000000  -1.0000000   0.0000000), wk =   0.0240000
        k(   45) = (   0.6000000  -0.2000000   1.0000000), wk =   0.0480000
        k(   46) = (   0.5000000  -0.1000000   0.9000000), wk =   0.0480000
        k(   47) = (  -0.4000000  -1.0000000   0.0000000), wk =   0.0240000

     Dense  grid:     9577 G-vectors     FFT dimensions: (  32,  32,  32)

     Estimated max dynamical RAM per process >       1.90 MB

     Estimated total dynamical RAM >      15.19 MB

     Initial potential from superposition of free atoms

     Starting from uniform charge
     Starting wfcs are random

     total cpu time spent up to now is        0.2 secs

     Self-consistent Calculation

     iteration #  1     ecut=    30.00 Ry     beta= 0.70
     Davidson diagonalization with overlap
     ethr =  1.00E-02,  avg # of iterations =  7.1

     total cpu time spent up to now is        0.3 secs

     total energy              =     -15.53207711 Ry
     Harris-Foulkes estimate   =     -17.00203467 Ry
     estimated scf accuracy    <       2.52852643 Ry

     iteration #  2     ecut=    30.00 Ry     beta= 0.70
     Davidson diagonalization with overlap
     ethr =  1.00E-02,  avg # of iterations =  2.0

     total cpu time spent up to now is        0.4 secs

     total energy              =     -15.72169370 Ry
     Harris-Foulkes estimate   =     -15.73238449 Ry
     estimated scf accuracy    <       0.03882684 Ry

     iteration #  3     ecut=    30.00 Ry     beta= 0.70
     Davidson diagonalization with overlap
     ethr =  4.85E-04,  avg # of iterations =  2.8

     total cpu time spent up to now is        0.4 secs

     total energy              =     -15.73150023 Ry
     Harris-Foulkes estimate   =     -15.73126126 Ry
     estimated scf accuracy    <       0.00150134 Ry

     iteration #  4     ecut=    30.00 Ry     beta= 0.70
     Davidson diagonalization with overlap
     ethr =  1.88E-05,  avg # of iterations =  2.5

     total cpu time spent up to now is        0.5 secs

     total energy              =     -15.73185405 Ry
     Harris-Foulkes estimate   =     -15.73189291 Ry
     estimated scf accuracy    <       0.00010717 Ry

     iteration #  5     ecut=    30.00 Ry     beta= 0.70
     Davidson diagonalization with overlap
     ethr =  1.34E-06,  avg # of iterations =  2.3

     total cpu time spent up to now is        0.5 secs

     total energy              =     -15.73187431 Ry
     Harris-Foulkes estimate   =     -15.73187429 Ry
     estimated scf accuracy    <       0.00000033 Ry

     iteration #  6     ecut=    30.00 Ry     beta= 0.70
     Davidson diagonalization with overlap
     ethr =  4.17E-09,  avg # of iterations =  4.5

     total cpu time spent up to now is        0.6 secs

     total energy              =     -15.73187517 Ry
     Harris-Foulkes estimate   =     -15.73187533 Ry
     estimated scf accuracy    <       0.00000033 Ry

     iteration #  7     ecut=    30.00 Ry     beta= 0.70
     Davidson diagonalization with overlap
     ethr =  4.09E-09,  avg # of iterations =  2.0

     total cpu time spent up to now is        0.7 secs

     End of self-consistent calculation

          k = 0.0000 0.0000 0.0000 (  1243 PWs)   bands (ev):

    -7.2842   0.8834   2.0906   2.0906

          k =-0.1000 0.1000-0.1000 (  1218 PWs)   bands (ev):

    -7.1993   0.1397   1.9709   1.9709

          k =-0.2000 0.2000-0.2000 (  1215 PWs)   bands (ev):

    -6.9514  -1.0322   1.7222   1.7222

          k =-0.3000 0.3000-0.3000 (  1206 PWs)   bands (ev):

    -6.5678  -2.1559   1.4877   1.4877

          k =-0.4000 0.4000-0.4000 (  1188 PWs)   bands (ev):

    -6.1345  -3.0555   1.3327   1.3327

          k = 0.5000-0.5000 0.5000 (  1194 PWs)   bands (ev):

    -5.9051  -3.4436   1.2791   1.2791

          k = 0.0000 0.2000 0.0000 (  1219 PWs)   bands (ev):

    -7.1706   0.0209   1.7629   1.7629

          k =-0.1000 0.3000-0.1000 (  1209 PWs)   bands (ev):

    -6.9755  -0.8475   1.4720   1.4853

          k =-0.2000 0.4000-0.2000 (  1208 PWs)   bands (ev):

    -6.6323  -1.8967   1.1184   1.2617

          k =-0.3000 0.5000-0.3000 (  1200 PWs)   bands (ev):

    -6.1981  -2.8438   0.8143   1.1431

          k = 0.6000-0.4000 0.6000 (  1193 PWs)   bands (ev):

    -5.8564  -3.4292   0.6248   1.1441

          k = 0.5000-0.3000 0.5000 (  1196 PWs)   bands (ev):

    -5.9404  -3.2947   0.5751   1.2602

          k = 0.4000-0.2000 0.4000 (  1199 PWs)   bands (ev):

    -6.3483  -2.5487   0.6797   1.4718

          k = 0.3000-0.1000 0.3000 (  1212 PWs)   bands (ev):

    -6.7628  -1.5530   0.9538   1.7349

          k = 0.2000 0.0000 0.2000 (  1205 PWs)   bands (ev):

    -7.0595  -0.5503   1.4186   1.9525

          k = 0.0000 0.4000 0.0000 (  1199 PWs)   bands (ev):

    -6.8334  -1.2154   1.1884   1.1884

          k =-0.1000 0.5000-0.1000 (  1208 PWs)   bands (ev):

    -6.5358  -1.9672   0.8100   0.9535

          k =-0.2000 0.6000-0.2000 (  1198 PWs)   bands (ev):

    -6.1195  -2.7989   0.3502   0.8341

          k = 0.7000-0.3000 0.7000 (  1194 PWs)   bands (ev):

    -5.7068  -3.4593  -0.0026   0.8468

          k = 0.6000-0.2000 0.6000 (  1184 PWs)   bands (ev):

    -5.6342  -3.5618  -0.1693   0.9872

          k = 0.5000-0.1000 0.5000 (  1193 PWs)   bands (ev):

    -5.9934  -3.0205  -0.1032   1.2307

          k = 0.4000 0.0000 0.4000 (  1207 PWs)   bands (ev):

    -6.4265  -2.2585   0.2564   1.5196

          k = 0.0000 0.6000 0.0000 (  1214 PWs)   bands (ev):

    -6.2831  -2.4309   0.6972   0.6972

          k =-0.1000 0.7000-0.1000 (  1208 PWs)   bands (ev):

    -5.8962  -3.0743   0.3225   0.5554

          k = 0.8000-0.2000 0.8000 (  1199 PWs)   bands (ev):

    -5.4498  -3.6870  -0.1680   0.5504

          k = 0.7000-0.1000 0.7000 (  1192 PWs)   bands (ev):

    -5.2420  -3.9344  -0.4893   0.6816

          k = 0.6000-0.0000 0.6000 (  1197 PWs)   bands (ev):

    -5.5568  -3.5578  -0.4977   0.9272

          k = 0.0000 0.8000 0.0000 (  1198 PWs)   bands (ev):

    -5.5382  -3.5781   0.3831   0.3831

          k = 0.9000-0.1000 0.9000 (  1198 PWs)   bands (ev):

    -5.0842  -4.1230   0.0697   0.3471

          k = 0.8000 0.0000 0.8000 (  1190 PWs)   bands (ev):

    -4.8503  -4.3566  -0.3487   0.4521

          k = 0.0000-1.0000 0.0000 (  1186 PWs)   bands (ev):

    -4.6255  -4.6255   0.2759   0.2759

          k =-0.2000 0.4000 0.0000 (  1204 PWs)   bands (ev):

    -6.7301  -1.5549   0.8338   1.4226

          k =-0.3000 0.5000-0.1000 (  1195 PWs)   bands (ev):

    -6.3485  -2.4167   0.3788   1.2056

          k = 0.6000-0.4000 0.8000 (  1203 PWs)   bands (ev):

    -5.9111  -3.1985   0.1279   1.0108

          k = 0.5000-0.3000 0.7000 (  1194 PWs)   bands (ev):

    -5.6729  -3.5600   0.0491   0.9369

          k =-0.2000 0.6000 0.0000 (  1204 PWs)   bands (ev):

    -6.1953  -2.6080   0.3617   0.7839

          k = 0.7000-0.3000 0.9000 (  1206 PWs)   bands (ev):

    -5.7577  -3.2914  -0.0506   0.6057

          k = 0.6000-0.2000 0.8000 (  1194 PWs)   bands (ev):

    -5.4009  -3.7673  -0.3247   0.5741

          k = 0.5000-0.1000 0.7000 (  1188 PWs)   bands (ev):

    -5.5154  -3.6206  -0.3863   0.7103

          k = 0.4000 0.0000 0.6000 (  1195 PWs)   bands (ev):

    -5.9425  -3.0380  -0.1664   0.9626

          k = 0.8000-0.2000 1.0000 (  1195 PWs)   bands (ev):

    -5.4780  -3.6403   0.1004   0.3163

          k = 0.7000-0.1000 0.9000 (  1191 PWs)   bands (ev):

    -5.0452  -4.1356  -0.2747   0.2594

          k = 0.6000 0.0000 0.8000 (  1189 PWs)   bands (ev):

    -5.0888  -4.0803  -0.5085   0.4207

          k =-0.2000-1.0000 0.0000 (  1194 PWs)   bands (ev):

    -4.6119  -4.6119   0.0827   0.0827

          k = 0.6000-0.2000 1.0000 (  1197 PWs)   bands (ev):

    -5.3136  -3.8206  -0.3235   0.2901

          k = 0.5000-0.1000 0.9000 (  1194 PWs)   bands (ev):

    -5.0195  -4.1453  -0.4054   0.1464

          k =-0.4000-1.0000 0.0000 (  1202 PWs)   bands (ev):

    -4.5893  -4.5893  -0.1706  -0.1706

     highest occupied level (ev):     2.0906

!    total energy              =     -15.73187521 Ry
     Harris-Foulkes estimate   =     -15.73187521 Ry
     estimated scf accuracy    <          9.6E-10 Ry

     The total energy is the sum of the following terms:

     one-electron contribution =       1.45550905 Ry
     hartree contribution      =       1.54074955 Ry
     xc contribution           =      -4.36333897 Ry
     ewald contribution        =     -14.36479483 Ry

     convergence has been achieved in   7 iterations

     Forces acting on atoms (cartesian axes, Ry/au):

     atom    1 type  1   force =     0.00000000    0.00000000    0.00000000
     atom    2 type  1   force =     0.00000000    0.00000000    0.00000000

     Total force =     0.000000     Total SCF correction =     0.000000


     Computing stress (Cartesian axis) and pressure

          total   stress  (Ry/bohr**3)                   (kbar)     P=     -154.32
  -0.00104905   0.00000000   0.00000000         -154.32        0.00        0.00
   0.00000000  -0.00104905  -0.00000000            0.00     -154.32       -0.00
   0.00000000   0.00000000  -0.00104905            0.00        0.00     -154.32


     BFGS Geometry Optimization

     number of scf cycles    =   1
     number of bfgs steps    =   0

     enthalpy new            =     -15.7318752077 Ry

     new trust radius        =       0.1090202010 bohr
ibrav =      2
 celldm(1) =     11.68528578
Input lattice vectors:
    -0.48688691    -0.00000000     0.48688691
     0.00000000     0.48688691     0.48688691
    -0.48688691     0.48688691     0.00000000
New lattice vectors in INITIAL alat:
    -0.48688691     0.00000000     0.48688691
     0.00000000     0.48688691     0.48688691
    -0.48688691     0.48688691     0.00000000
New lattice vectors in NEW alat (for information only):
    -0.50000000     0.00000000     0.50000000
     0.00000000     0.50000000     0.50000000
    -0.50000000     0.50000000     0.00000000
Discrepancy in bohr =     0.000000    0.000000    0.000000
     new conv_thr            =       0.0000000100 Ry

     new unit-cell volume =    398.89448 a.u.^3 (    59.11006 Ang^3 )
     density =      1.57797 g/cm^3

CELL_PARAMETERS (alat= 12.00000000)
  -0.486886908   0.000000000   0.486886908
   0.000000000   0.486886908   0.486886908
  -0.486886908   0.486886908   0.000000000

ATOMIC_POSITIONS (alat)
Si            0.0000000000        0.0000000000        0.0000000000    0   0   0
Si            0.2434434538        0.2434434538        0.2434434538    0   0   0



     Writing output data file ./outdir/si.save/
     NEW-OLD atomic charge density approx. for the potential

     total cpu time spent up to now is        0.8 secs

     Self-consistent Calculation

     iteration #  1     ecut=    30.00 Ry     beta= 0.70
     Davidson diagonalization with overlap
     ethr =  1.00E-06,  avg # of iterations =  5.4

     total cpu time spent up to now is        0.9 secs

     total energy              =     -15.76622967 Ry
     Harris-Foulkes estimate   =     -15.77020612 Ry
     estimated scf accuracy    <       0.00802371 Ry

     iteration #  2     ecut=    30.00 Ry     beta= 0.70
     Davidson diagonalization with overlap
     ethr =  1.00E-04,  avg # of iterations =  1.7

     total cpu time spent up to now is        0.9 secs

     total energy              =     -15.76691683 Ry
     Harris-Foulkes estimate   =     -15.76694340 Ry
     estimated scf accuracy    <       0.00010648 Ry

     iteration #  3     ecut=    30.00 Ry     beta= 0.70
     Davidson diagonalization with overlap
     ethr =  1.33E-06,  avg # of iterations =  3.0

     total cpu time spent up to now is        1.0 secs

     total energy              =     -15.76696972 Ry
     Harris-Foulkes estimate   =     -15.76697224 Ry
     estimated scf accuracy    <       0.00000911 Ry

     iteration #  4     ecut=    30.00 Ry     beta= 0.70
     Davidson diagonalization with overlap
     ethr =  1.14E-07,  avg # of iterations =  2.0

     total cpu time spent up to now is        1.1 secs

     total energy              =     -15.76697056 Ry
     Harris-Foulkes estimate   =     -15.76697108 Ry
     estimated scf accuracy    <       0.00000101 Ry

     iteration #  5     ecut=    30.00 Ry     beta= 0.70
     Davidson diagonalization with overlap
     ethr =  1.26E-08,  avg # of iterations =  2.0

     total cpu time spent up to now is        1.1 secs

     End of self-consistent calculation

          k = 0.0000 0.0000 0.0000 (  1243 PWs)   bands (ev):

    -7.0932   2.0428   2.6416   2.6416

          k =-0.1027 0.1027-0.1027 (  1218 PWs)   bands (ev):

    -7.0013   0.9865   2.5108   2.5108

          k =-0.2054 0.2054-0.2054 (  1215 PWs)   bands (ev):

    -6.7325  -0.3619   2.2422   2.2422

          k =-0.3081 0.3081-0.3081 (  1206 PWs)   bands (ev):

    -6.3145  -1.6110   1.9916   1.9916

          k =-0.4108 0.4108-0.4108 (  1188 PWs)   bands (ev):

    -5.8368  -2.6059   1.8268   1.8268

          k = 0.5135-0.5135 0.5135 (  1194 PWs)   bands (ev):

    -5.5790  -3.0387   1.7701   1.7701

          k = 0.0000 0.2054 0.0000 (  1219 PWs)   bands (ev):

    -6.9703   0.8781   2.2801   2.2801

          k =-0.1027 0.3081-0.1027 (  1209 PWs)   bands (ev):

    -6.7590  -0.1227   1.9792   1.9809

          k =-0.2054 0.4108-0.2054 (  1208 PWs)   bands (ev):

    -6.3858  -1.3011   1.6151   1.7404

          k =-0.3081 0.5135-0.3081 (  1200 PWs)   bands (ev):

    -5.9096  -2.3526   1.2964   1.6162

          k = 0.6162-0.4108 0.6162 (  1193 PWs)   bands (ev):

    -5.5283  -3.0053   1.0935   1.6205

          k = 0.5135-0.3081 0.5135 (  1196 PWs)   bands (ev):

    -5.6228  -2.8547   1.0333   1.7480

          k = 0.4108-0.2054 0.4108 (  1199 PWs)   bands (ev):

    -6.0748  -2.0255   1.1320   1.9773

          k = 0.3081-0.1027 0.3081 (  1212 PWs)   bands (ev):

    -6.5278  -0.9189   1.4090   2.2615

          k = 0.2054 0.0000 0.2054 (  1205 PWs)   bands (ev):

    -6.8499   0.2033   1.9015   2.4958

          k = 0.0000 0.4108 0.0000 (  1199 PWs)   bands (ev):

    -6.6053  -0.4997   1.6563   1.6563

          k =-0.1027 0.5135-0.1027 (  1208 PWs)   bands (ev):

    -6.2824  -1.3323   1.2517   1.4041

          k =-0.2054 0.6162-0.2054 (  1198 PWs)   bands (ev):

    -5.8279  -2.2553   0.7614   1.2779

          k = 0.7189-0.3081 0.7189 (  1194 PWs)   bands (ev):

    -5.3713  -2.9912   0.3837   1.2944

          k = 0.6162-0.2054 0.6162 (  1184 PWs)   bands (ev):

    -5.2889  -3.1075   0.1987   1.4485

          k = 0.5135-0.1027 0.5135 (  1193 PWs)   bands (ev):

    -5.6875  -2.5047   0.2573   1.7137

          k = 0.4108 0.0000 0.4108 (  1207 PWs)   bands (ev):

    -6.1619  -1.6696   0.6382   2.0281

          k = 0.0000 0.6162 0.0000 (  1214 PWs)   bands (ev):

    -6.0091  -1.8249   1.1275   1.1275

          k =-0.1027 0.7189-0.1027 (  1208 PWs)   bands (ev):

    -5.5885  -2.5269   0.7167   0.9759

          k = 0.8215-0.2054 0.8215 (  1199 PWs)   bands (ev):

    -5.0985  -3.1984   0.1770   0.9722

          k = 0.7189-0.1027 0.7189 (  1192 PWs)   bands (ev):

    -4.8643  -3.4755  -0.1778   1.1155

          k = 0.6162 0.0000 0.6162 (  1197 PWs)   bands (ev):

    -5.2096  -3.0678  -0.1879   1.3827

          k = 0.0000 0.8215 0.0000 (  1198 PWs)   bands (ev):

    -5.2011  -3.0718   0.7905   0.7905

          k = 0.9242-0.1027 0.9242 (  1198 PWs)   bands (ev):

    -4.7064  -3.6633   0.4404   0.7524

          k = 0.8215 0.0000 0.8215 (  1190 PWs)   bands (ev):

    -4.4422  -3.9227  -0.0274   0.8665

          k = 0.0000-1.0269 0.0000 (  1186 PWs)   bands (ev):

    -4.2099  -4.2099   0.6756   0.6756

          k =-0.2054 0.4108 0.0000 (  1204 PWs)   bands (ev):

    -6.4928  -0.8941   1.2667   1.9249

          k =-0.3081 0.5135-0.1027 (  1195 PWs)   bands (ev):

    -6.0770  -1.8457   0.7840   1.6870

          k = 0.6162-0.4108 0.8215 (  1203 PWs)   bands (ev):

    -5.5957  -2.7145   0.5291   1.4719

          k = 0.5135-0.3081 0.7189 (  1194 PWs)   bands (ev):

    -5.3292  -3.1197   0.4510   1.3900

          k =-0.2054 0.6162 0.0000 (  1204 PWs)   bands (ev):

    -5.9124  -2.0261   0.7567   1.2222

          k = 0.7189-0.3081 0.9242 (  1206 PWs)   bands (ev):

    -5.4336  -2.7738   0.3101   1.0248

          k = 0.6162-0.2054 0.8215 (  1194 PWs)   bands (ev):

    -5.0377  -3.3016   0.0131   0.9899

          k = 0.5135-0.1027 0.7189 (  1188 PWs)   bands (ev):

    -5.1638  -3.1402  -0.0585   1.1399

          k = 0.4108 0.0000 0.6162 (  1195 PWs)   bands (ev):

    -5.6339  -2.5042   0.1775   1.4178

          k = 0.8215-0.2054 1.0269 (  1195 PWs)   bands (ev):

    -5.1331  -3.1392   0.4741   0.7089

          k = 0.7189-0.1027 0.9242 (  1191 PWs)   bands (ev):

    -4.6575  -3.6777   0.0552   0.6463

          k = 0.6162 0.0000 0.8215 (  1189 PWs)   bands (ev):

    -4.6990  -3.6235  -0.2039   0.8228

          k =-0.2054-1.0269 0.0000 (  1194 PWs)   bands (ev):

    -4.1922  -4.1922   0.4544   0.4544

          k = 0.6162-0.2054 1.0269 (  1197 PWs)   bands (ev):

    -4.9483  -3.3373   0.0031   0.6737

          k = 0.5135-0.1027 0.9242 (  1194 PWs)   bands (ev):

    -4.6248  -3.6895  -0.0889   0.5150

          k =-0.4108-1.0269 0.0000 (  1202 PWs)   bands (ev):

    -4.1627  -4.1627   0.1670   0.1670

     highest occupied level (ev):     2.6416

!    total energy              =     -15.76697071 Ry
     Harris-Foulkes estimate   =     -15.76697071 Ry
     estimated scf accuracy    <          1.9E-09 Ry

     The total energy is the sum of the following terms:

     one-electron contribution =       1.95650747 Ry
     hartree contribution      =       1.45563861 Ry
     xc contribution           =      -4.42744183 Ry
     ewald contribution        =     -14.75167495 Ry

     convergence has been achieved in   5 iterations

     Forces acting on atoms (cartesian axes, Ry/au):

     atom    1 type  1   force =    -0.00000000    0.00000000    0.00000000
     atom    2 type  1   force =     0.00000000   -0.00000000   -0.00000000

     Total force =     0.000000     Total SCF correction =     0.000000


     Computing stress (Cartesian axis) and pressure

          total   stress  (Ry/bohr**3)                   (kbar)     P=     -156.79
  -0.00106585   0.00000000  -0.00000000         -156.79        0.00       -0.00
   0.00000000  -0.00106585   0.00000000            0.00     -156.79        0.00
   0.00000000   0.00000000  -0.00106585            0.00        0.00     -156.79


     number of scf cycles    =   2
     number of bfgs steps    =   1

     enthalpy old            =     -15.7318752077 Ry
     enthalpy new            =     -15.7669707065 Ry

     CASE: enthalpy_new < enthalpy_old


     WARNING: bfgs curvature condition failed, Theta= 0.830
     new trust radius        =       0.1613716663 bohr
ibrav =      2
 celldm(1) =     11.21321446
Input lattice vectors:
    -0.46721727     0.00000000     0.46721727
    -0.00000000     0.46721727     0.46721727
    -0.46721727     0.46721727     0.00000000
New lattice vectors in INITIAL alat:
    -0.46721727     0.00000000     0.46721727
     0.00000000     0.46721727     0.46721727
    -0.46721727     0.46721727     0.00000000
New lattice vectors in NEW alat (for information only):
    -0.50000000     0.00000000     0.50000000
     0.00000000     0.50000000     0.50000000
    -0.50000000     0.50000000     0.00000000
Discrepancy in bohr =     0.000000    0.000000    0.000000
     new conv_thr            =            1.0E-10 Ry

     new unit-cell volume =    352.47668 a.u.^3 (    52.23166 Ang^3 )
     density =      1.78578 g/cm^3

CELL_PARAMETERS (alat= 12.00000000)
  -0.467217269   0.000000000   0.467217269
   0.000000000   0.467217269   0.467217269
  -0.467217269   0.467217269   0.000000000

ATOMIC_POSITIONS (alat)
Si            0.0000000000        0.0000000000        0.0000000000    0   0   0
Si            0.2336086346        0.2336086346        0.2336086346    0   0   0



     Writing output data file ./outdir/si.save/
     NEW-OLD atomic charge density approx. for the potential

     total cpu time spent up to now is        1.2 secs

     Self-consistent Calculation

     iteration #  1     ecut=    30.00 Ry     beta= 0.70
     Davidson diagonalization with overlap
     ethr =  1.00E-06,  avg # of iterations =  5.7

     total cpu time spent up to now is        1.4 secs

     total energy              =     -15.81386379 Ry
     Harris-Foulkes estimate   =     -15.82281157 Ry
     estimated scf accuracy    <       0.01804795 Ry

     iteration #  2     ecut=    30.00 Ry     beta= 0.70
     Davidson diagonalization with overlap
     ethr =  2.26E-04,  avg # of iterations =  1.7

     total cpu time spent up to now is        1.4 secs

     total energy              =     -15.81543111 Ry
     Harris-Foulkes estimate   =     -15.81548758 Ry
     estimated scf accuracy    <       0.00025060 Ry

     iteration #  3     ecut=    30.00 Ry     beta= 0.70
     Davidson diagonalization with overlap
     ethr =  3.13E-06,  avg # of iterations =  2.9

     total cpu time spent up to now is        1.5 secs

     total energy              =     -15.81554295 Ry
     Harris-Foulkes estimate   =     -15.81554867 Ry
     estimated scf accuracy    <       0.00002307 Ry

     iteration #  4     ecut=    30.00 Ry     beta= 0.70
     Davidson diagonalization with overlap
     ethr =  2.88E-07,  avg # of iterations =  2.0

     total cpu time spent up to now is        1.5 secs

     total energy              =     -15.81554469 Ry
     Harris-Foulkes estimate   =     -15.81554572 Ry
     estimated scf accuracy    <       0.00000210 Ry

     iteration #  5     ecut=    30.00 Ry     beta= 0.70
     Davidson diagonalization with overlap
     ethr =  2.63E-08,  avg # of iterations =  2.0

     total cpu time spent up to now is        1.6 secs

     total energy              =     -15.81554497 Ry
     Harris-Foulkes estimate   =     -15.81554497 Ry
     estimated scf accuracy    <          3.5E-09 Ry

     iteration #  6     ecut=    30.00 Ry     beta= 0.70
     Davidson diagonalization with overlap
     ethr =  4.38E-11,  avg # of iterations =  3.5

     total cpu time spent up to now is        1.7 secs

     total energy              =     -15.81554498 Ry
     Harris-Foulkes estimate   =     -15.81554498 Ry
     estimated scf accuracy    <          1.3E-10 Ry

     iteration #  7     ecut=    30.00 Ry     beta= 0.70
     Davidson diagonalization with overlap
     ethr =  1.61E-12,  avg # of iterations =  2.5

     total cpu time spent up to now is        1.7 secs

     total energy              =     -15.81561086 Ry
     Harris-Foulkes estimate   =     -15.81561086 Ry
     estimated scf accuracy    <       0.00000007 Ry

     iteration #  8     ecut=    30.00 Ry     beta= 0.70
     Davidson diagonalization with overlap
     ethr =  1.61E-12,  avg # of iterations =  1.0

     total cpu time spent up to now is        1.8 secs

     total energy              =     -15.81561086 Ry
     Harris-Foulkes estimate   =     -15.81561086 Ry
     estimated scf accuracy    <       0.00000007 Ry

     iteration #  9     ecut=    30.00 Ry     beta= 0.70
     Davidson diagonalization with overlap
     ethr =  1.61E-12,  avg # of iterations =  1.0

     total cpu time spent up to now is        1.8 secs

     total energy              =     -15.81561087 Ry
     Harris-Foulkes estimate   =     -15.81561086 Ry
     estimated scf accuracy    <       0.00000007 Ry

     iteration # 10     ecut=    30.00 Ry     beta= 0.70
     Davidson diagonalization with overlap
     ethr =  1.61E-12,  avg # of iterations =  3.7

     total cpu time spent up to now is        1.9 secs

     total energy              =     -15.81561084 Ry
     Harris-Foulkes estimate   =     -15.81561087 Ry
     estimated scf accuracy    <       0.00000016 Ry

     iteration # 11     ecut=    30.00 Ry     beta= 0.70
     Davidson diagonalization with overlap
     ethr =  1.61E-12,  avg # of iterations =  4.2

     total cpu time spent up to now is        2.0 secs

     total energy              =     -15.81561084 Ry
     Harris-Foulkes estimate   =     -15.81561084 Ry
     estimated scf accuracy    <          1.6E-10 Ry

     iteration # 12     ecut=    30.00 Ry     beta= 0.70
     Davidson diagonalization with overlap
     ethr =  1.61E-12,  avg # of iterations =  2.0

     total cpu time spent up to now is        2.1 secs

     total energy              =     -15.81561084 Ry
     Harris-Foulkes estimate   =     -15.81561084 Ry
     estimated scf accuracy    <          1.2E-09 Ry

     iteration # 13     ecut=    30.00 Ry     beta= 0.70
     Davidson diagonalization with overlap
     ethr =  1.61E-12,  avg # of iterations =  1.0

     total cpu time spent up to now is        2.1 secs

     total energy              =     -15.81561084 Ry
     Harris-Foulkes estimate   =     -15.81561084 Ry
     estimated scf accuracy    <          1.6E-09 Ry

     iteration # 14     ecut=    30.00 Ry     beta= 0.70
     Davidson diagonalization with overlap
     ethr =  1.61E-12,  avg # of iterations =  2.0

     total cpu time spent up to now is        2.2 secs

     End of self-consistent calculation

          k = 0.0000 0.0000 0.0000 (  1243 PWs)   bands (ev):

    -6.7699   3.5847   3.5847   3.5847

          k =-0.1070 0.1070-0.1070 (  1218 PWs)   bands (ev):

    -6.6666   2.2419   3.4351   3.4351

          k =-0.2140 0.2140-0.2140 (  1215 PWs)   bands (ev):

    -6.3633   0.6772   3.1338   3.1338

          k =-0.3210 0.3210-0.3210 (  1206 PWs)   bands (ev):

    -5.8879  -0.7531   2.8573   2.8573

          k =-0.4281 0.4281-0.4281 (  1188 PWs)   bands (ev):

    -5.3342  -1.8966   2.6773   2.6773

          k = 0.5351-0.5351 0.5351 (  1194 PWs)   bands (ev):

    -5.0258  -2.4041   2.6157   2.6157

          k = 0.0000 0.2140 0.0000 (  1219 PWs)   bands (ev):

    -6.6318   2.1985   3.1647   3.1647

          k =-0.1070 0.3210-0.1070 (  1209 PWs)   bands (ev):

    -6.3937   1.0142   2.8251   2.8603

          k =-0.2140 0.4281-0.2140 (  1208 PWs)   bands (ev):

    -5.9708  -0.3585   2.4754   2.5619

          k =-0.3210 0.5351-0.3210 (  1200 PWs)   bands (ev):

    -5.4236  -1.5735   2.1315   2.4294

          k = 0.6421-0.4281 0.6421 (  1193 PWs)   bands (ev):

    -4.9727  -2.3374   1.9051   2.4405

          k = 0.5351-0.3210 0.5351 (  1196 PWs)   bands (ev):

    -5.0860  -2.1596   1.8263   2.5876

          k = 0.4281-0.2140 0.4281 (  1199 PWs)   bands (ev):

    -5.6145  -1.1953   1.9145   2.8467

          k = 0.3210-0.1070 0.3210 (  1212 PWs)   bands (ev):

    -6.1319   0.0830   2.1934   3.1660

          k = 0.2140 0.0000 0.2140 (  1205 PWs)   bands (ev):

    -6.4960   1.3739   2.7274   3.4276

          k = 0.0000 0.4281 0.0000 (  1199 PWs)   bands (ev):

    -6.2211   0.6560   2.4584   2.4584

          k =-0.1070 0.5351-0.1070 (  1208 PWs)   bands (ev):

    -5.8564  -0.3017   2.0139   2.1779

          k =-0.2140 0.6421-0.2140 (  1198 PWs)   bands (ev):

    -5.3381  -1.3745   1.4766   2.0411

          k = 0.7491-0.3210 0.7491 (  1194 PWs)   bands (ev):

    -4.8056  -2.2377   1.0587   2.0646

          k = 0.6421-0.2140 0.6421 (  1184 PWs)   bands (ev):

    -4.7052  -2.3783   0.8420   2.2421

          k = 0.5351-0.1070 0.5351 (  1193 PWs)   bands (ev):

    -5.1727  -1.6698   0.8835   2.5443

          k = 0.4281 0.0000 0.4281 (  1207 PWs)   bands (ev):

    -5.7167  -0.7174   1.2948   2.9022

          k = 0.0000 0.6421 0.0000 (  1214 PWs)   bands (ev):

    -5.5494  -0.8285   1.8674   1.8674

          k =-0.1070 0.7491-0.1070 (  1208 PWs)   bands (ev):

    -5.0727  -1.6227   1.3946   1.6999

          k = 0.8561-0.2140 0.8561 (  1199 PWs)   bands (ev):

    -4.5091  -2.3908   0.7706   1.6988

          k = 0.7491-0.1070 0.7491 (  1192 PWs)   bands (ev):

    -4.2270  -2.7200   0.3585   1.8625

          k = 0.6421 0.0000 0.6421 (  1197 PWs)   bands (ev):

    -4.6249  -2.2614   0.3451   2.1664

          k = 0.0000 0.8561 0.0000 (  1198 PWs)   bands (ev):

    -4.6375  -2.2321   1.4927   1.4927

          k = 0.9631-0.1070 0.9631 (  1198 PWs)   bands (ev):

    -4.0751  -2.8982   1.0775   1.4513

          k = 0.8561 0.0000 0.8561 (  1190 PWs)   bands (ev):

    -3.7561  -3.2019   0.5225   1.5807

          k = 0.0000-1.0702 0.0000 (  1186 PWs)   bands (ev):

    -3.5174  -3.5174   1.3651   1.3651

          k =-0.2140 0.4281 0.0000 (  1204 PWs)   bands (ev):

    -6.0932   0.1658   2.0091   2.7897

          k =-0.3210 0.5351-0.1070 (  1195 PWs)   bands (ev):

    -5.6206  -0.9256   1.4854   2.5152

          k = 0.6421-0.4281 0.8561 (  1203 PWs)   bands (ev):

    -5.0644  -1.9384   1.2299   2.2643

          k = 0.5351-0.3210 0.7491 (  1194 PWs)   bands (ev):

    -4.7473  -2.4188   1.1547   2.1680

          k =-0.2140 0.6421-0.0000 (  1204 PWs)   bands (ev):

    -5.4375  -1.0714   1.4359   1.9757

          k = 0.7491-0.3210 0.9631 (  1206 PWs)   bands (ev):

    -4.8896  -1.9226   0.9336   1.7437

          k = 0.6421-0.2140 0.8561 (  1194 PWs)   bands (ev):

    -4.4250  -2.5402   0.6001   1.7029

          k = 0.5351-0.1070 0.7491 (  1188 PWs)   bands (ev):

    -4.5714  -2.3531   0.5093   1.8773

          k = 0.4281-0.0000 0.6421 (  1195 PWs)   bands (ev):

    -5.1151  -1.6294   0.7699   2.1997

          k = 0.8561-0.2140 1.0702 (  1195 PWs)   bands (ev):

    -4.5558  -2.3068   1.1171   1.3824

          k = 0.7491-0.1070 0.9631 (  1191 PWs)   bands (ev):

    -4.0070  -2.9151   0.6209   1.3105

          k = 0.6421 0.0000 0.8561 (  1189 PWs)   bands (ev):

    -4.0421  -2.8654   0.3178   1.5130

          k =-0.2140-1.0702 0.0000 (  1194 PWs)   bands (ev):

    -3.4915  -3.4915   1.0931   1.0931

          k = 0.6421-0.2140 1.0702 (  1197 PWs)   bands (ev):

    -4.3346  -2.5343   0.5642   1.3301

          k = 0.5351-0.1070 0.9631 (  1194 PWs)   bands (ev):

    -3.9603  -2.9313   0.4544   1.1454

          k =-0.4281-1.0702 0.0000 (  1202 PWs)   bands (ev):

    -3.4476  -3.4476   0.7445   0.7445

     highest occupied level (ev):     3.5847

!    total energy              =     -15.81561084 Ry
     Harris-Foulkes estimate   =     -15.81561084 Ry
     estimated scf accuracy    <          1.1E-11 Ry

     The total energy is the sum of the following terms:

     one-electron contribution =       2.76080865 Ry
     hartree contribution      =       1.33174040 Ry
     xc contribution           =      -4.53544602 Ry
     ewald contribution        =     -15.37271387 Ry

     convergence has been achieved in  14 iterations

     Forces acting on atoms (cartesian axes, Ry/au):

     atom    1 type  1   force =     0.00000000    0.00000000    0.00000000
     atom    2 type  1   force =     0.00000000    0.00000000    0.00000000

     Total force =     0.000000     Total SCF correction =     0.000000


     Computing stress (Cartesian axis) and pressure

          total   stress  (Ry/bohr**3)                   (kbar)     P=     -148.16
  -0.00100716  -0.00000000   0.00000000         -148.16       -0.00        0.00
  -0.00000000  -0.00100716   0.00000000           -0.00     -148.16        0.00
   0.00000000   0.00000000  -0.00100716            0.00        0.00     -148.16


     number of scf cycles    =   3
     number of bfgs steps    =   2

     enthalpy old            =     -15.7669707065 Ry
     enthalpy new            =     -15.8156108440 Ry

     CASE: enthalpy_new < enthalpy_old

     new trust radius        =       0.2371176803 bohr
ibrav =      2
 celldm(1) =     10.50510748
Input lattice vectors:
    -0.43771281     0.00000000     0.43771281
    -0.00000000     0.43771281     0.43771281
    -0.43771281     0.43771281     0.00000000
New lattice vectors in INITIAL alat:
    -0.43771281     0.00000000     0.43771281
     0.00000000     0.43771281     0.43771281
    -0.43771281     0.43771281     0.00000000
New lattice vectors in NEW alat (for information only):
    -0.50000000     0.00000000     0.50000000
     0.00000000     0.50000000     0.50000000
    -0.50000000     0.50000000     0.00000000
Discrepancy in bohr =     0.000000    0.000000    0.000000
     new conv_thr            =            1.0E-10 Ry

     new unit-cell volume =    289.82878 a.u.^3 (    42.94819 Ang^3 )
     density =      2.17178 g/cm^3

CELL_PARAMETERS (alat= 12.00000000)
  -0.437712812   0.000000000   0.437712812
   0.000000000   0.437712812   0.437712812
  -0.437712812   0.437712812   0.000000000

ATOMIC_POSITIONS (alat)
Si            0.0000000000        0.0000000000        0.0000000000    0   0   0
Si            0.2188564058        0.2188564058        0.2188564058    0   0   0



     Writing output data file ./outdir/si.save/
     NEW-OLD atomic charge density approx. for the potential

     total cpu time spent up to now is        2.3 secs

     Self-consistent Calculation

     iteration #  1     ecut=    30.00 Ry     beta= 0.70
     Davidson diagonalization with overlap
     ethr =  1.00E-06,  avg # of iterations =  6.1

     total cpu time spent up to now is        2.4 secs

     total energy              =     -15.86315836 Ry
     Harris-Foulkes estimate   =     -15.88357168 Ry
     estimated scf accuracy    <       0.04079842 Ry

     iteration #  2     ecut=    30.00 Ry     beta= 0.70
     Davidson diagonalization with overlap
     ethr =  5.10E-04,  avg # of iterations =  1.7

     total cpu time spent up to now is        2.4 secs

     total energy              =     -15.86686371 Ry
     Harris-Foulkes estimate   =     -15.86696645 Ry
     estimated scf accuracy    <       0.00055699 Ry

     iteration #  3     ecut=    30.00 Ry     beta= 0.70
     Davidson diagonalization with overlap
     ethr =  6.96E-06,  avg # of iterations =  2.8

     total cpu time spent up to now is        2.5 secs

     total energy              =     -15.86711686 Ry
     Harris-Foulkes estimate   =     -15.86712994 Ry
     estimated scf accuracy    <       0.00006334 Ry

     iteration #  4     ecut=    30.00 Ry     beta= 0.70
     Davidson diagonalization with overlap
     ethr =  7.92E-07,  avg # of iterations =  1.8

     total cpu time spent up to now is        2.6 secs

     total energy              =     -15.86712047 Ry
     Harris-Foulkes estimate   =     -15.86712301 Ry
     estimated scf accuracy    <       0.00000574 Ry

     iteration #  5     ecut=    30.00 Ry     beta= 0.70
     Davidson diagonalization with overlap
     ethr =  7.17E-08,  avg # of iterations =  1.9

     total cpu time spent up to now is        2.6 secs

     total energy              =     -15.86712109 Ry
     Harris-Foulkes estimate   =     -15.86712110 Ry
     estimated scf accuracy    <       0.00000003 Ry

     iteration #  6     ecut=    30.00 Ry     beta= 0.70
     Davidson diagonalization with overlap
     ethr =  3.83E-10,  avg # of iterations =  3.1

     total cpu time spent up to now is        2.7 secs

     total energy              =     -15.86712112 Ry
     Harris-Foulkes estimate   =     -15.86712112 Ry
     estimated scf accuracy    <          2.0E-10 Ry

     iteration #  7     ecut=    30.00 Ry     beta= 0.70
     Davidson diagonalization with overlap
     ethr =  2.49E-12,  avg # of iterations =  2.9

     total cpu time spent up to now is        2.8 secs

     End of self-consistent calculation

          k = 0.0000 0.0000 0.0000 (  1243 PWs)   bands (ev):

    -6.1808   5.3178   5.3178   5.3178

          k =-0.1142 0.1142-0.1142 (  1218 PWs)   bands (ev):

    -6.0576   4.1537   5.1341   5.1341

          k =-0.2285 0.2285-0.2285 (  1215 PWs)   bands (ev):

    -5.6944   2.3611   4.7765   4.7765

          k =-0.3427 0.3427-0.3427 (  1206 PWs)   bands (ev):

    -5.1180   0.6675   4.4580   4.4580

          k =-0.4569 0.4569-0.4569 (  1188 PWs)   bands (ev):

    -4.4253  -0.7186   4.2545   4.2545

          k = 0.5712-0.5712 0.5712 (  1194 PWs)   bands (ev):

    -4.0154  -1.3627   4.1855   4.1855

          k = 0.0000 0.2285 0.0000 (  1219 PWs)   bands (ev):

    -6.0163   4.2847   4.7883   4.7883

          k =-0.1142 0.3427-0.1142 (  1209 PWs)   bands (ev):

    -5.7318   2.8609   4.3808   4.5015

          k =-0.2285 0.4569-0.2285 (  1208 PWs)   bands (ev):

    -5.2219   1.2011   4.0774   4.0808

          k =-0.3427 0.5712-0.3427 (  1200 PWs)   bands (ev):

    -4.5473  -0.2762   3.6887   3.9339

          k = 0.6854-0.4569 0.6854 (  1193 PWs)   bands (ev):

    -3.9611  -1.2372   3.4172   3.9602

          k = 0.5712-0.3427 0.5712 (  1196 PWs)   bands (ev):

    -4.1125  -1.0086   3.3036   4.1446

          k = 0.4569-0.2285 0.4569 (  1199 PWs)   bands (ev):

    -4.7847   0.1865   3.3720   4.4574

          k = 0.3427-0.1142 0.3427 (  1212 PWs)   bands (ev):

    -5.4163   1.7366   3.6497   4.8383

          k = 0.2285 0.0000 0.2285 (  1205 PWs)   bands (ev):

    -5.8539   3.2635   4.2436   5.1464

          k = 0.0000 0.4569 0.0000 (  1199 PWs)   bands (ev):

    -5.5264   2.6186   3.9359   3.9359

          k =-0.1142 0.5712-0.1142 (  1208 PWs)   bands (ev):

    -5.0889   1.4571   3.4356   3.6067

          k =-0.2285 0.6854-0.2285 (  1198 PWs)   bands (ev):

    -4.4575   0.1241   2.8258   3.4532

          k = 0.7996-0.3427 0.7996 (  1194 PWs)   bands (ev):

    -3.7829  -0.9695   2.3399   3.4913

          k = 0.6854-0.2285 0.6854 (  1184 PWs)   bands (ev):

    -3.6454  -1.1580   2.0643   3.7122

          k = 0.5712-0.1142 0.5712 (  1193 PWs)   bands (ev):

    -4.2455  -0.2508   2.0633   4.0823

          k = 0.4569 0.0000 0.4569 (  1207 PWs)   bands (ev):

    -4.9146   0.9051   2.5109   4.5200

          k = 0.0000 0.6854 0.0000 (  1214 PWs)   bands (ev):

    -4.7237   0.9094   3.2369   3.2369

          k =-0.1142 0.7996-0.1142 (  1208 PWs)   bands (ev):

    -4.1491  -0.0356   2.6487   3.0424

          k = 0.9138-0.2285 0.9138 (  1199 PWs)   bands (ev):

    -3.4516  -0.9726   1.8712   3.0468

          k = 0.7996-0.1142 0.7996 (  1192 PWs)   bands (ev):

    -3.0726  -1.4045   1.3544   3.2478

          k = 0.6854 0.0000 0.6854 (  1197 PWs)   bands (ev):

    -3.5700  -0.8538   1.3324   3.6180

          k = 0.0000 0.9138 0.0000 (  1198 PWs)   bands (ev):

    -3.6314  -0.7502   2.7970   2.7970

          k = 1.0281-0.1142 1.0281 (  1198 PWs)   bands (ev):

    -2.9496  -1.5410   2.2547   2.7504

          k = 0.9138 0.0000 0.9138 (  1190 PWs)   bands (ev):

    -2.5200  -1.9274   1.5316   2.9071

          k = 0.0000-1.1423 0.0000 (  1186 PWs)   bands (ev):

    -2.2879  -2.2879   2.6477   2.6477

          k =-0.2285 0.4569 0.0000 (  1204 PWs)   bands (ev):

    -5.3715   1.9486   3.3777   4.3945

          k =-0.3427 0.5712-0.1142 (  1195 PWs)   bands (ev):

    -4.7989   0.6290   2.7994   4.0494

          k = 0.6854-0.4569 0.9138 (  1203 PWs)   bands (ev):

    -4.1057  -0.6362   2.5572   3.7292

          k = 0.5712-0.3427 0.7996 (  1194 PWs)   bands (ev):

    -3.6881  -1.2575   2.4917   3.6042

          k =-0.2285 0.6854 0.0000 (  1204 PWs)   bands (ev):

    -4.5845   0.5879   2.6931   3.3684

          k = 0.7996-0.3427 1.0281 (  1206 PWs)   bands (ev):

    -3.9127  -0.4411   2.1001   3.0677

          k = 0.6854-0.2285 0.9138 (  1194 PWs)   bands (ev):

    -3.3163  -1.2311   1.7085   3.0161

          k = 0.5712-0.1142 0.7996 (  1188 PWs)   bands (ev):

    -3.5016  -0.9934   1.5759   3.2370

          k = 0.4569 0.0000 0.6854 (  1195 PWs)   bands (ev):

    -4.1822  -0.1107   1.8698   3.6437

          k = 0.9138-0.2285 1.1423 (  1195 PWs)   bands (ev):

    -3.5234  -0.8334   2.3085   2.6226

          k = 0.7996-0.1142 1.0281 (  1191 PWs)   bands (ev):

    -2.8395  -1.5604   1.6619   2.5353

          k = 0.6854 0.0000 0.9138 (  1189 PWs)   bands (ev):

    -2.8544  -1.5261   1.2758   2.7863

          k =-0.2285-1.1423 0.0000 (  1194 PWs)   bands (ev):

    -2.2430  -2.2430   2.2730   2.2730

          k = 0.6854-0.2285 1.1423 (  1197 PWs)   bands (ev):

    -3.2312  -1.1110   1.6016   2.5337

          k = 0.5712-0.1142 1.0281 (  1194 PWs)   bands (ev):

    -2.7602  -1.5873   1.4569   2.3004

          k =-0.4569-1.1423 0.0000 (  1202 PWs)   bands (ev):

    -2.1648  -2.1648   1.8032   1.8032

     highest occupied level (ev):     5.3178

!    total energy              =     -15.86712112 Ry
     Harris-Foulkes estimate   =     -15.86712112 Ry
     estimated scf accuracy    <          4.7E-11 Ry

     The total energy is the sum of the following terms:

     one-electron contribution =       4.11466356 Ry
     hartree contribution      =       1.15385625 Ry
     xc contribution           =      -4.72671435 Ry
     ewald contribution        =     -16.40892659 Ry

     convergence has been achieved in   7 iterations

     Forces acting on atoms (cartesian axes, Ry/au):

     atom    1 type  1   force =    -0.00000000   -0.00000000   -0.00000000
     atom    2 type  1   force =     0.00000000    0.00000000    0.00000000

     Total force =     0.000000     Total SCF correction =     0.000000


     Computing stress (Cartesian axis) and pressure

          total   stress  (Ry/bohr**3)                   (kbar)     P=      -76.58
  -0.00052058   0.00000000   0.00000000          -76.58        0.00        0.00
   0.00000000  -0.00052058   0.00000000            0.00      -76.58        0.00
   0.00000000  -0.00000000  -0.00052058            0.00       -0.00      -76.58


     number of scf cycles    =   4
     number of bfgs steps    =   3

     enthalpy old            =     -15.8156108440 Ry
     enthalpy new            =     -15.8671211249 Ry

     CASE: enthalpy_new < enthalpy_old

     new trust radius        =       0.1905750383 bohr
ibrav =      2
 celldm(1) =      9.91712312
Input lattice vectors:
    -0.41321346    -0.00000000     0.41321346
     0.00000000     0.41321346     0.41321346
    -0.41321346     0.41321346    -0.00000000
New lattice vectors in INITIAL alat:
    -0.41321346     0.00000000     0.41321346
     0.00000000     0.41321346     0.41321346
    -0.41321346     0.41321346     0.00000000
New lattice vectors in NEW alat (for information only):
    -0.50000000     0.00000000     0.50000000
     0.00000000     0.50000000     0.50000000
    -0.50000000     0.50000000     0.00000000
Discrepancy in bohr =     0.000000    0.000000    0.000000
     new conv_thr            =            1.0E-10 Ry

     new unit-cell volume =    243.83561 a.u.^3 (    36.13271 Ang^3 )
     density =      2.58143 g/cm^3

CELL_PARAMETERS (alat= 12.00000000)
  -0.413213463   0.000000000   0.413213463
   0.000000000   0.413213463   0.413213463
  -0.413213463   0.413213463   0.000000000

ATOMIC_POSITIONS (alat)
Si            0.0000000000        0.0000000000        0.0000000000    0   0   0
Si            0.2066067317        0.2066067317        0.2066067317    0   0   0



     Writing output data file ./outdir/si.save/
     NEW-OLD atomic charge density approx. for the potential

     total cpu time spent up to now is        2.9 secs

     Self-consistent Calculation

     iteration #  1     ecut=    30.00 Ry     beta= 0.70
     Davidson diagonalization with overlap
     ethr =  1.00E-06,  avg # of iterations =  5.8

     total cpu time spent up to now is        3.0 secs

     total energy              =     -15.86671297 Ry
     Harris-Foulkes estimate   =     -15.88128119 Ry
     estimated scf accuracy    <       0.02877732 Ry

     iteration #  2     ecut=    30.00 Ry     beta= 0.70
     Davidson diagonalization with overlap
     ethr =  3.60E-04,  avg # of iterations =  1.9

     total cpu time spent up to now is        3.0 secs

     total energy              =     -15.86946599 Ry
     Harris-Foulkes estimate   =     -15.86951829 Ry
     estimated scf accuracy    <       0.00033605 Ry

     iteration #  3     ecut=    30.00 Ry     beta= 0.70
     Davidson diagonalization with overlap
     ethr =  4.20E-06,  avg # of iterations =  2.9

     total cpu time spent up to now is        3.1 secs

     total energy              =     -15.86965492 Ry
     Harris-Foulkes estimate   =     -15.86966336 Ry
     estimated scf accuracy    <       0.00004741 Ry

     iteration #  4     ecut=    30.00 Ry     beta= 0.70
     Davidson diagonalization with overlap
     ethr =  5.93E-07,  avg # of iterations =  1.6

     total cpu time spent up to now is        3.2 secs

     total energy              =     -15.86965657 Ry
     Harris-Foulkes estimate   =     -15.86965903 Ry
     estimated scf accuracy    <       0.00000584 Ry

     iteration #  5     ecut=    30.00 Ry     beta= 0.70
     Davidson diagonalization with overlap
     ethr =  7.30E-08,  avg # of iterations =  1.7

     total cpu time spent up to now is        3.2 secs

     total energy              =     -15.86965711 Ry
     Harris-Foulkes estimate   =     -15.86965712 Ry
     estimated scf accuracy    <       0.00000003 Ry

     iteration #  6     ecut=    30.00 Ry     beta= 0.70
     Davidson diagonalization with overlap
     ethr =  3.59E-10,  avg # of iterations =  3.0

     total cpu time spent up to now is        3.3 secs

     total energy              =     -15.86965713 Ry
     Harris-Foulkes estimate   =     -15.86965714 Ry
     estimated scf accuracy    <          6.7E-10 Ry

     iteration #  7     ecut=    30.00 Ry     beta= 0.70
     Davidson diagonalization with overlap
     ethr =  8.32E-12,  avg # of iterations =  2.4

     total cpu time spent up to now is        3.3 secs

     End of self-consistent calculation

          k = 0.0000 0.0000 0.0000 (  1243 PWs)   bands (ev):

    -5.5655   7.1240   7.1240   7.1240

          k =-0.1210 0.1210-0.1210 (  1218 PWs)   bands (ev):

    -5.4228   5.9432   6.9052   6.9052

          k =-0.2420 0.2420-0.2420 (  1215 PWs)   bands (ev):

    -5.0007   3.9641   6.4941   6.4941

          k =-0.3630 0.3630-0.3630 (  1206 PWs)   bands (ev):

    -4.3242   2.0383   6.1391   6.1391

          k =-0.4840 0.4840-0.4840 (  1188 PWs)   bands (ev):

    -3.4876   0.4208   5.9168   5.9168

          k = 0.6050-0.6050 0.6050 (  1194 PWs)   bands (ev):

    -2.9597  -0.3715   5.8423   5.8423

          k = 0.0000 0.2420 0.0000 (  1219 PWs)   bands (ev):

    -5.3750   6.2450   6.4781   6.4781

          k =-0.1210 0.3630-0.1210 (  1209 PWs)   bands (ev):

    -5.0450   4.6000   6.0039   6.2397

          k =-0.2420 0.4840-0.2420 (  1208 PWs)   bands (ev):

    -4.4492   2.6943   5.6644   5.7777

          k =-0.3630 0.6050-0.3630 (  1200 PWs)   bands (ev):

    -3.6456   0.9753   5.3336   5.5143

          k = 0.7260-0.4840 0.7260 (  1193 PWs)   bands (ev):

    -2.9085  -0.1896   5.0135   5.5601

          k = 0.6050-0.3630 0.6050 (  1196 PWs)   bands (ev):

    -3.1051   0.0949   4.8621   5.7851

          k = 0.4840-0.2420 0.4840 (  1199 PWs)   bands (ev):

    -3.9307   1.5176   4.9093   6.1530

          k = 0.3630-0.1210 0.3630 (  1212 PWs)   bands (ev):

    -4.6767   3.3159   5.1838   6.5949

          k = 0.2420 0.0000 0.2420 (  1205 PWs)   bands (ev):

    -5.1866   5.0543   5.8224   6.9463

          k = 0.0000 0.4840 0.0000 (  1199 PWs)   bands (ev):

    -4.8076   4.5379   5.4805   5.4805

          k =-0.1210 0.6050-0.1210 (  1208 PWs)   bands (ev):

    -4.2986   3.1698   4.9495   5.1047

          k =-0.2420 0.7260-0.2420 (  1198 PWs)   bands (ev):

    -3.5540   1.5779   4.2762   4.9371

          k = 0.8470-0.3630 0.8470 (  1194 PWs)   bands (ev):

    -2.7278   0.2483   3.7221   4.9921

          k = 0.7260-0.2420 0.7260 (  1184 PWs)   bands (ev):

    -2.5456   0.0041   3.3847   5.2589

          k = 0.6050-0.1210 0.6050 (  1193 PWs)   bands (ev):

    -3.2930   1.1245   3.3317   5.6995

          k = 0.4840 0.0000 0.4840 (  1207 PWs)   bands (ev):

    -4.0893   2.4933   3.7912   6.2206

          k = 0.0000 0.7260 0.0000 (  1214 PWs)   bands (ev):

    -3.8764   2.6455   4.6764   4.6764

          k =-0.1210 0.8470-0.1210 (  1208 PWs)   bands (ev):

    -3.2047   1.5580   3.9656   4.4563

          k = 0.9680-0.2420 0.9680 (  1199 PWs)   bands (ev):

    -2.3693   0.4490   3.0321   4.4675

          k = 0.8470-0.1210 0.8470 (  1192 PWs)   bands (ev):

    -1.8765  -0.1034   2.4100   4.7067

          k = 0.7260 0.0000 0.7260 (  1197 PWs)   bands (ev):

    -2.4842   0.5510   2.3735   5.1449

          k = 0.0000 0.9680 0.0000 (  1198 PWs)   bands (ev):

    -2.6065   0.7435   4.1736   4.1736

          k = 1.0890-0.1210 1.0890 (  1198 PWs)   bands (ev):

    -1.8049  -0.1662   3.4892   4.1223

          k = 0.9680 0.0000 0.9680 (  1190 PWs)   bands (ev):

    -1.2461  -0.6413   2.5812   4.3067

          k = 0.0000-1.2100 0.0000 (  1186 PWs)   bands (ev):

    -1.0424  -1.0424   4.0034   4.0034

          k =-0.2420 0.4840 0.0000 (  1204 PWs)   bands (ev):

    -4.6261   3.6727   4.8102   6.0865

          k =-0.3630 0.6050-0.1210 (  1195 PWs)   bands (ev):

    -3.9540   2.1307   4.2006   5.6635

          k = 0.7260-0.4840 0.9680 (  1203 PWs)   bands (ev):

    -3.1192   0.6157   3.9834   5.2656

          k = 0.6050-0.3630 0.8470 (  1194 PWs)   bands (ev):

    -2.5850  -0.1586   3.9318   5.1070

          k =-0.2420 0.7260 0.0000 (  1204 PWs)   bands (ev):

    -3.7095   2.2386   4.0153   4.8295

          k = 0.8470-0.3630 1.0890 (  1206 PWs)   bands (ev):

    -2.9122   1.0284   3.3468   4.4488

          k = 0.7260-0.2420 0.9680 (  1194 PWs)   bands (ev):

    -2.1694   0.0430   2.9076   4.3864

          k = 0.6050-0.1210 0.8470 (  1188 PWs)   bands (ev):

    -2.3988   0.3399   2.7236   4.6590

          k = 0.4840 0.0000 0.7260 (  1195 PWs)   bands (ev):

    -3.2253   1.3981   3.0316   5.1566

          k = 0.9680-0.2420 1.2100 (  1195 PWs)   bands (ev):

    -2.4703   0.6587   3.5630   3.9160

          k = 0.8470-0.1210 1.0890 (  1191 PWs)   bands (ev):

    -1.6433  -0.1840   2.7488   3.8169

          k = 0.7260 0.0000 0.9680 (  1189 PWs)   bands (ev):

    -1.6261  -0.1745   2.2739   4.1188

          k =-0.2420-1.2100 0.0000 (  1194 PWs)   bands (ev):

    -0.9731  -0.9731   3.5104   3.5104

          k = 0.7260-0.2420 1.2100 (  1197 PWs)   bands (ev):

    -2.0993   0.3324   2.6922   3.7833

          k = 0.6050-0.1210 1.0890 (  1194 PWs)   bands (ev):

    -1.5201  -0.2284   2.5103   3.4985

          k =-0.4840-1.2100 0.0000 (  1202 PWs)   bands (ev):

    -0.8480  -0.8480   2.9027   2.9027

     highest occupied level (ev):     7.1240

!    total energy              =     -15.86965714 Ry
     Harris-Foulkes estimate   =     -15.86965714 Ry
     estimated scf accuracy    <          2.8E-12 Ry

     The total energy is the sum of the following terms:

     one-electron contribution =       5.41631162 Ry
     hartree contribution      =       1.01054547 Ry
     xc contribution           =      -4.91470548 Ry
     ewald contribution        =     -17.38180875 Ry

     convergence has been achieved in   7 iterations

     Forces acting on atoms (cartesian axes, Ry/au):

     atom    1 type  1   force =    -0.00000000    0.00000000    0.00000000
     atom    2 type  1   force =     0.00000000   -0.00000000   -0.00000000

     Total force =     0.000000     Total SCF correction =     0.000000


     Computing stress (Cartesian axis) and pressure

          total   stress  (Ry/bohr**3)                   (kbar)     P=       84.49
   0.00057436   0.00000000   0.00000000           84.49        0.00        0.00
   0.00000000   0.00057436  -0.00000000            0.00       84.49       -0.00
   0.00000000  -0.00000000   0.00057436            0.00       -0.00       84.49


     number of scf cycles    =   5
     number of bfgs steps    =   4

     enthalpy old            =     -15.8671211249 Ry
     enthalpy new            =     -15.8696571350 Ry

     CASE: enthalpy_new < enthalpy_old

     new trust radius        =       0.0918008200 bohr
ibrav =      2
 celldm(1) =     10.20863329
Input lattice vectors:
    -0.42535972    -0.00000000     0.42535972
     0.00000000     0.42535972     0.42535972
    -0.42535972     0.42535972    -0.00000000
New lattice vectors in INITIAL alat:
    -0.42535972     0.00000000     0.42535972
     0.00000000     0.42535972     0.42535972
    -0.42535972     0.42535972     0.00000000
New lattice vectors in NEW alat (for information only):
    -0.50000000     0.00000000     0.50000000
     0.00000000     0.50000000     0.50000000
    -0.50000000     0.50000000     0.00000000
Discrepancy in bohr =     0.000000    0.000000    0.000000
     new conv_thr            =            1.0E-10 Ry

     new unit-cell volume =    265.97623 a.u.^3 (    39.41361 Ang^3 )
     density =      2.36655 g/cm^3

CELL_PARAMETERS (alat= 12.00000000)
  -0.425359721   0.000000000   0.425359721
   0.000000000   0.425359721   0.425359721
  -0.425359721   0.425359721   0.000000000

ATOMIC_POSITIONS (alat)
Si            0.0000000000        0.0000000000        0.0000000000    0   0   0
Si            0.2126798603        0.2126798603        0.2126798603    0   0   0



     Writing output data file ./outdir/si.save/
     NEW-OLD atomic charge density approx. for the potential

     total cpu time spent up to now is        3.4 secs

     Self-consistent Calculation

     iteration #  1     ecut=    30.00 Ry     beta= 0.70
     Davidson diagonalization with overlap
     ethr =  1.00E-06,  avg # of iterations =  5.1

     total cpu time spent up to now is        3.6 secs

     total energy              =     -15.87398252 Ry
     Harris-Foulkes estimate   =     -15.87739622 Ry
     estimated scf accuracy    <       0.00682900 Ry

     iteration #  2     ecut=    30.00 Ry     beta= 0.70
     Davidson diagonalization with overlap
     ethr =  8.54E-05,  avg # of iterations =  1.7

     total cpu time spent up to now is        3.6 secs

     total energy              =     -15.87461268 Ry
     Harris-Foulkes estimate   =     -15.87462800 Ry
     estimated scf accuracy    <       0.00007226 Ry

     iteration #  3     ecut=    30.00 Ry     beta= 0.70
     Davidson diagonalization with overlap
     ethr =  9.03E-07,  avg # of iterations =  2.9

     total cpu time spent up to now is        3.7 secs

     total energy              =     -15.87465688 Ry
     Harris-Foulkes estimate   =     -15.87465891 Ry
     estimated scf accuracy    <       0.00000985 Ry

     iteration #  4     ecut=    30.00 Ry     beta= 0.70
     Davidson diagonalization with overlap
     ethr =  1.23E-07,  avg # of iterations =  2.0

     total cpu time spent up to now is        3.7 secs

     total energy              =     -15.87465720 Ry
     Harris-Foulkes estimate   =     -15.87465796 Ry
     estimated scf accuracy    <       0.00000176 Ry

     iteration #  5     ecut=    30.00 Ry     beta= 0.70
     Davidson diagonalization with overlap
     ethr =  2.20E-08,  avg # of iterations =  1.7

     total cpu time spent up to now is        3.8 secs

     total energy              =     -15.87465736 Ry
     Harris-Foulkes estimate   =     -15.87465736 Ry
     estimated scf accuracy    <          3.5E-09 Ry

     iteration #  6     ecut=    30.00 Ry     beta= 0.70
     Davidson diagonalization with overlap
     ethr =  4.39E-11,  avg # of iterations =  3.3

     total cpu time spent up to now is        3.9 secs

     total energy              =     -15.87465737 Ry
     Harris-Foulkes estimate   =     -15.87465737 Ry
     estimated scf accuracy    <          1.6E-10 Ry

     iteration #  7     ecut=    30.00 Ry     beta= 0.70
     Davidson diagonalization with overlap
     ethr =  2.06E-12,  avg # of iterations =  2.1

     total cpu time spent up to now is        3.9 secs

     End of self-consistent calculation

          k = 0.0000 0.0000 0.0000 (  1243 PWs)   bands (ev):

    -5.8874   6.1810   6.1810   6.1810

          k =-0.1175 0.1175-0.1175 (  1218 PWs)   bands (ev):

    -5.7548   5.0221   5.9805   5.9805

          k =-0.2351 0.2351-0.2351 (  1215 PWs)   bands (ev):

    -5.3630   3.1392   5.5967   5.5967

          k =-0.3526 0.3526-0.3526 (  1206 PWs)   bands (ev):

    -4.7382   1.3316   5.2598   5.2598

          k =-0.4702 0.4702-0.4702 (  1188 PWs)   bands (ev):

    -3.9765  -0.1669   5.0467   5.0467

          k = 0.5877-0.5877 0.5877 (  1194 PWs)   bands (ev):

    -3.5118  -0.8808   4.9748   4.9748

          k = 0.0000 0.2351 0.0000 (  1219 PWs)   bands (ev):

    -5.7103   5.2369   5.5962   5.5962

          k =-0.1175 0.3526-0.1175 (  1209 PWs)   bands (ev):

    -5.4037   3.7079   5.1563   5.3292

          k =-0.2351 0.4702-0.2351 (  1208 PWs)   bands (ev):

    -4.8522   1.9261   4.8350   4.8892

          k =-0.3526 0.5877-0.3526 (  1200 PWs)   bands (ev):

    -4.1155   0.3304   4.4724   4.6877

          k = 0.7053-0.4702 0.7053 (  1193 PWs)   bands (ev):

    -3.4584  -0.7278   4.1778   4.7229

          k = 0.5877-0.3526 0.5877 (  1196 PWs)   bands (ev):

    -3.6307  -0.4730   4.0464   4.9264

          k = 0.4702-0.2351 0.4702 (  1199 PWs)   bands (ev):

    -4.3758   0.8320   4.1048   5.2656

          k = 0.3526-0.1175 0.3526 (  1212 PWs)   bands (ev):

    -5.0627   2.5039   4.3811   5.6761

          k = 0.2351 0.0000 0.2351 (  1205 PWs)   bands (ev):

    -5.5353   4.1334   4.9982   6.0056

          k = 0.0000 0.4702 0.0000 (  1199 PWs)   bands (ev):

    -5.1828   3.5468   4.6735   4.6735

          k =-0.1175 0.5877-0.1175 (  1208 PWs)   bands (ev):

    -4.7107   2.2874   4.1547   4.3215

          k =-0.2351 0.7053-0.2351 (  1198 PWs)   bands (ev):

    -4.0246   0.8294   3.5137   4.1609

          k = 0.8228-0.3526 0.8228 (  1194 PWs)   bands (ev):

    -3.2779  -0.3775   2.9952   4.2069

          k = 0.7053-0.2351 0.7053 (  1184 PWs)   bands (ev):

    -3.1199  -0.5918   2.6901   4.4497

          k = 0.5877-0.1175 0.5877 (  1193 PWs)   bands (ev):

    -3.7892   0.4166   2.6646   4.8535

          k = 0.4702 0.0000 0.4702 (  1207 PWs)   bands (ev):

    -4.5195   1.6734   3.1211   5.3309

          k = 0.0000 0.7053 0.0000 (  1214 PWs)   bands (ev):

    -4.3178   1.7458   3.9233   3.9233

          k =-0.1175 0.8228-0.1175 (  1208 PWs)   bands (ev):

    -3.6962   0.7314   3.2769   3.7163

          k = 0.9404-0.2351 0.9404 (  1199 PWs)   bands (ev):

    -2.9327  -0.2879   2.4242   3.7238

          k = 0.8228-0.1175 0.8228 (  1192 PWs)   bands (ev):

    -2.5010  -0.7753   1.8563   3.9432

          k = 0.7053 0.0000 0.7053 (  1197 PWs)   bands (ev):

    -3.0501  -0.1766   1.8283   4.3460

          k = 0.0000 0.9404 0.0000 (  1198 PWs)   bands (ev):

    -3.1395  -0.0317   3.4528   3.4528

          k = 1.0579-0.1175 1.0579 (  1198 PWs)   bands (ev):

    -2.4000  -0.8804   2.8437   3.4038

          k = 0.9404 0.0000 0.9404 (  1190 PWs)   bands (ev):

    -1.9104  -1.3088   2.0334   3.5739

          k = 0.0000-1.1755 0.0000 (  1186 PWs)   bands (ev):

    -1.6893  -1.6893   3.2933   3.2933

          k =-0.2351 0.4702 0.0000 (  1204 PWs)   bands (ev):

    -5.0150   2.7846   4.0615   5.2007

          k =-0.3526 0.5877-0.1175 (  1195 PWs)   bands (ev):

    -4.3943   1.3580   3.4653   4.8190

          k = 0.7053-0.4702 0.9404 (  1203 PWs)   bands (ev):

    -3.6333  -0.0282   3.2340   4.4623

          k = 0.5877-0.3526 0.8228 (  1194 PWs)   bands (ev):

    -3.1615  -0.7217   3.1748   4.3218

          k =-0.2351 0.7053 0.0000 (  1204 PWs)   bands (ev):

    -4.1653   1.3839   3.3235   4.0656

          k = 0.8228-0.3526 1.0579 (  1206 PWs)   bands (ev):

    -3.4331   0.2686   2.6917   3.7277

          k = 0.7053-0.2351 0.9404 (  1194 PWs)   bands (ev):

    -2.7678  -0.6126   2.2757   3.6708

          k = 0.5877-0.1175 0.8228 (  1188 PWs)   bands (ev):

    -2.9737  -0.3474   2.1195   3.9161

          k = 0.4702-0.0000 0.7053 (  1195 PWs)   bands (ev):

    -3.7237   0.6172   2.4230   4.3658

          k = 0.9404-0.2351 1.1755 (  1195 PWs)   bands (ev):

    -3.0181  -0.1166   2.9064   3.2408

          k = 0.8228-0.1175 1.0579 (  1191 PWs)   bands (ev):

    -2.2661  -0.8996   2.1811   3.1472

          k = 0.7053 0.0000 0.9404 (  1189 PWs)   bands (ev):

    -2.2671  -0.8761   1.7528   3.4224

          k =-0.2351-1.1755 0.0000 (  1194 PWs)   bands (ev):

    -1.6333  -1.6333   2.8634   2.8634

          k = 0.7053-0.2351 1.1755 (  1197 PWs)   bands (ev):

    -2.6888  -0.4179   2.1215   3.1315

          k = 0.5877-0.1175 1.0579 (  1194 PWs)   bands (ev):

    -2.1672  -0.9339   1.9590   2.8737

          k =-0.4702-1.1755 0.0000 (  1202 PWs)   bands (ev):

    -1.5341  -1.5341   2.3291   2.3291

     highest occupied level (ev):     6.1810

!    total energy              =     -15.87465737 Ry
     Harris-Foulkes estimate   =     -15.87465737 Ry
     estimated scf accuracy    <          9.7E-12 Ry

     The total energy is the sum of the following terms:

     one-electron contribution =       4.74751505 Ry
     hartree contribution      =       1.08131177 Ry
     xc contribution           =      -4.81801751 Ry
     ewald contribution        =     -16.88546669 Ry

     convergence has been achieved in   7 iterations

     Forces acting on atoms (cartesian axes, Ry/au):

     atom    1 type  1   force =    -0.00000000   -0.00000000    0.00000000
     atom    2 type  1   force =     0.00000000    0.00000000   -0.00000000

     Total force =     0.000000     Total SCF correction =     0.000000


     Computing stress (Cartesian axis) and pressure

          total   stress  (Ry/bohr**3)                   (kbar)     P=      -11.16
  -0.00007584   0.00000000  -0.00000000          -11.16        0.00       -0.00
   0.00000000  -0.00007584  -0.00000000            0.00      -11.16       -0.00
  -0.00000000  -0.00000000  -0.00007584           -0.00       -0.00      -11.16


     number of scf cycles    =   6
     number of bfgs steps    =   5

     enthalpy old            =     -15.8696571350 Ry
     enthalpy new            =     -15.8746573702 Ry

     CASE: enthalpy_new < enthalpy_old

     new trust radius        =       0.0114327018 bohr
ibrav =      2
 celldm(1) =     10.17285125
Input lattice vectors:
    -0.42386880    -0.00000000     0.42386880
     0.00000000     0.42386880     0.42386880
    -0.42386880     0.42386880    -0.00000000
New lattice vectors in INITIAL alat:
    -0.42386880     0.00000000     0.42386880
     0.00000000     0.42386880     0.42386880
    -0.42386880     0.42386880     0.00000000
New lattice vectors in NEW alat (for information only):
    -0.50000000     0.00000000     0.50000000
     0.00000000     0.50000000     0.50000000
    -0.50000000     0.50000000     0.00000000
Discrepancy in bohr =     0.000000    0.000000    0.000000
     new conv_thr            =            1.0E-10 Ry

     new unit-cell volume =    263.18922 a.u.^3 (    39.00062 Ang^3 )
     density =      2.39161 g/cm^3

CELL_PARAMETERS (alat= 12.00000000)
  -0.423868802   0.000000000   0.423868802
   0.000000000   0.423868802   0.423868802
  -0.423868802   0.423868802   0.000000000

ATOMIC_POSITIONS (alat)
Si            0.0000000000        0.0000000000        0.0000000000    0   0   0
Si            0.2119344011        0.2119344011        0.2119344011    0   0   0



     Writing output data file ./outdir/si.save/
     NEW-OLD atomic charge density approx. for the potential

     total cpu time spent up to now is        4.0 secs

     Self-consistent Calculation

     iteration #  1     ecut=    30.00 Ry     beta= 0.70
     Davidson diagonalization with overlap
     ethr =  1.00E-06,  avg # of iterations =  3.3

     total cpu time spent up to now is        4.1 secs

     total energy              =     -15.87476569 Ry
     Harris-Foulkes estimate   =     -15.87481731 Ry
     estimated scf accuracy    <       0.00010319 Ry

     iteration #  2     ecut=    30.00 Ry     beta= 0.70
     Davidson diagonalization with overlap
     ethr =  1.29E-06,  avg # of iterations =  1.8

     total cpu time spent up to now is        4.2 secs

     total energy              =     -15.87477542 Ry
     Harris-Foulkes estimate   =     -15.87477565 Ry
     estimated scf accuracy    <       0.00000117 Ry

     iteration #  3     ecut=    30.00 Ry     beta= 0.70
     Davidson diagonalization with overlap
     ethr =  1.46E-08,  avg # of iterations =  2.9

     total cpu time spent up to now is        4.2 secs

     total energy              =     -15.87477598 Ry
     Harris-Foulkes estimate   =     -15.87477601 Ry
     estimated scf accuracy    <       0.00000014 Ry

     iteration #  4     ecut=    30.00 Ry     beta= 0.70
     Davidson diagonalization with overlap
     ethr =  1.71E-09,  avg # of iterations =  1.9

     total cpu time spent up to now is        4.3 secs

     total energy              =     -15.87477599 Ry
     Harris-Foulkes estimate   =     -15.87477600 Ry
     estimated scf accuracy    <       0.00000002 Ry

     iteration #  5     ecut=    30.00 Ry     beta= 0.70
     Davidson diagonalization with overlap
     ethr =  1.92E-10,  avg # of iterations =  1.8

     total cpu time spent up to now is        4.3 secs

     End of self-consistent calculation

          k = 0.0000 0.0000 0.0000 (  1243 PWs)   bands (ev):

    -5.8498   6.2915   6.2915   6.2915

          k =-0.1180 0.1180-0.1180 (  1218 PWs)   bands (ev):

    -5.7159   5.1312   6.0889   6.0889

          k =-0.2359 0.2359-0.2359 (  1215 PWs)   bands (ev):

    -5.3206   3.2370   5.7018   5.7018

          k =-0.3539 0.3539-0.3539 (  1206 PWs)   bands (ev):

    -4.6896   1.4153   5.3627   5.3627

          k =-0.4718 0.4718-0.4718 (  1188 PWs)   bands (ev):

    -3.9191  -0.0974   5.1484   5.1484

          k = 0.5898-0.5898 0.5898 (  1194 PWs)   bands (ev):

    -3.4473  -0.8203   5.0761   5.0761

          k = 0.0000 0.2359 0.0000 (  1219 PWs)   bands (ev):

    -5.6711   5.3564   5.6995   5.6995

          k =-0.1180 0.3539-0.1180 (  1209 PWs)   bands (ev):

    -5.3617   3.8140   5.2556   5.4356

          k =-0.2359 0.4718-0.2359 (  1208 PWs)   bands (ev):

    -4.8050   2.0172   4.9321   4.9931

          k =-0.3539 0.5898-0.3539 (  1200 PWs)   bands (ev):

    -4.0604   0.4068   4.5730   4.7844

          k = 0.7078-0.4718 0.7078 (  1193 PWs)   bands (ev):

    -3.3940  -0.6639   4.2755   4.8208

          k = 0.5898-0.3539 0.5898 (  1196 PWs)   bands (ev):

    -3.5691  -0.4057   4.1417   5.0268

          k = 0.4718-0.2359 0.4718 (  1199 PWs)   bands (ev):

    -4.3236   0.9132   4.1989   5.3694

          k = 0.3539-0.1180 0.3539 (  1212 PWs)   bands (ev):

    -5.0175   2.6003   4.4749   5.7836

          k = 0.2359 0.0000 0.2359 (  1205 PWs)   bands (ev):

    -5.4945   4.2427   5.0948   6.1157

          k = 0.0000 0.4718 0.0000 (  1199 PWs)   bands (ev):

    -5.1389   3.6640   4.7680   4.7680

          k =-0.1180 0.5898-0.1180 (  1208 PWs)   bands (ev):

    -4.6623   2.3920   4.2474   4.4131

          k =-0.2359 0.7078-0.2359 (  1198 PWs)   bands (ev):

    -3.9694   0.9182   3.6025   4.2517

          k = 0.8257-0.3539 0.8257 (  1194 PWs)   bands (ev):

    -3.2134  -0.3032   3.0798   4.2987

          k = 0.7078-0.2359 0.7078 (  1184 PWs)   bands (ev):

    -3.0526  -0.5209   2.7709   4.5443

          k = 0.5898-0.1180 0.5898 (  1193 PWs)   bands (ev):

    -3.7310   0.5006   2.7423   4.9524

          k = 0.4718 0.0000 0.4718 (  1207 PWs)   bands (ev):

    -4.4690   1.7704   3.1995   5.4350

          k = 0.0000 0.7078 0.0000 (  1214 PWs)   bands (ev):

    -4.2660   1.8519   4.0114   4.0114

          k =-0.1180 0.8257-0.1180 (  1208 PWs)   bands (ev):

    -3.6385   0.8288   3.3574   3.8028

          k = 0.9437-0.2359 0.9437 (  1199 PWs)   bands (ev):

    -2.8665  -0.2010   2.4952   3.8108

          k = 0.8257-0.1180 0.8257 (  1192 PWs)   bands (ev):

    -2.4279  -0.6958   1.9209   4.0325

          k = 0.7078 0.0000 0.7078 (  1197 PWs)   bands (ev):

    -2.9837  -0.0908   1.8920   4.4394

          k = 0.0000 0.9437 0.0000 (  1198 PWs)   bands (ev):

    -3.0768   0.0596   3.5370   3.5370

          k = 1.0616-0.1180 1.0616 (  1198 PWs)   bands (ev):

    -2.3300  -0.7964   2.9193   3.4878

          k = 0.9437 0.0000 0.9437 (  1190 PWs)   bands (ev):

    -1.8325  -1.2302   2.0976   3.6595

          k = 0.0000-1.1796 0.0000 (  1186 PWs)   bands (ev):

    -1.6132  -1.6132   3.3762   3.3762

          k =-0.2359 0.4718 0.0000 (  1204 PWs)   bands (ev):

    -4.9694   2.8899   4.1491   5.3042

          k =-0.3539 0.5898-0.1180 (  1195 PWs)   bands (ev):

    -4.3426   1.4497   3.5510   4.9178

          k = 0.7078-0.4718 0.9437 (  1203 PWs)   bands (ev):

    -3.5729   0.0483   3.3213   4.5563

          k = 0.5898-0.3539 0.8257 (  1194 PWs)   bands (ev):

    -3.0940  -0.6546   3.2630   4.4138

          k =-0.2359 0.7078 0.0000 (  1204 PWs)   bands (ev):

    -4.1118   1.4848   3.4044   4.1550

          k = 0.8257-0.3539 1.0616 (  1206 PWs)   bands (ev):

    -3.3719   0.3584   2.7680   3.8122

          k = 0.7078-0.2359 0.9437 (  1194 PWs)   bands (ev):

    -2.6977  -0.5347   2.3491   3.7546

          k = 0.5898-0.1180 0.8257 (  1188 PWs)   bands (ev):

    -2.9063  -0.2659   2.1897   4.0031

          k = 0.4718 0.0000 0.7078 (  1195 PWs)   bands (ev):

    -3.6652   0.7094   2.4941   4.4584

          k = 0.9437-0.2359 1.1796 (  1195 PWs)   bands (ev):

    -2.9537  -0.0254   2.9831   3.3199

          k = 0.8257-0.1180 1.0616 (  1191 PWs)   bands (ev):

    -2.1930  -0.8155   2.2476   3.2256

          k = 0.7078-0.0000 0.9437 (  1189 PWs)   bands (ev):

    -2.1920  -0.7935   1.8138   3.5039

          k =-0.2359-1.1796 0.0000 (  1194 PWs)   bands (ev):

    -1.5557  -1.5557   2.9391   2.9391

          k = 0.7078-0.2359 1.1796 (  1197 PWs)   bands (ev):

    -2.6196  -0.3296   2.1882   3.2080

          k = 0.5898-0.1180 1.0616 (  1194 PWs)   bands (ev):

    -2.0914  -0.8508   2.0234   2.9470

          k =-0.4718-1.1796 0.0000 (  1202 PWs)   bands (ev):

    -1.4536  -1.4536   2.3963   2.3963

     highest occupied level (ev):     6.2915

!    total energy              =     -15.87477599 Ry
     Harris-Foulkes estimate   =     -15.87477599 Ry
     estimated scf accuracy    <          4.4E-11 Ry

     The total energy is the sum of the following terms:

     one-electron contribution =       4.82699237 Ry
     hartree contribution      =       1.07259951 Ry
     xc contribution           =      -4.82950815 Ry
     ewald contribution        =     -16.94485972 Ry

     convergence has been achieved in   5 iterations

     Forces acting on atoms (cartesian axes, Ry/au):

     atom    1 type  1   force =    -0.00000000    0.00000000    0.00000000
     atom    2 type  1   force =     0.00000000   -0.00000000   -0.00000000

     Total force =     0.000000     Total SCF correction =     0.000000


     Computing stress (Cartesian axis) and pressure

          total   stress  (Ry/bohr**3)                   (kbar)     P=       -1.28
  -0.00000869  -0.00000000   0.00000000           -1.28       -0.00        0.00
  -0.00000000  -0.00000869   0.00000000           -0.00       -1.28        0.00
   0.00000000   0.00000000  -0.00000869            0.00        0.00       -1.28


     number of scf cycles    =   7
     number of bfgs steps    =   6

     enthalpy old            =     -15.8746573702 Ry
     enthalpy new            =     -15.8747759898 Ry

     CASE: enthalpy_new < enthalpy_old

     new trust radius        =       0.0014648927 bohr
ibrav =      2
 celldm(1) =     10.16825838
Input lattice vectors:
    -0.42367743     0.00000000     0.42367743
     0.00000000     0.42367743     0.42367743
    -0.42367743     0.42367743     0.00000000
New lattice vectors in INITIAL alat:
    -0.42367743     0.00000000     0.42367743
     0.00000000     0.42367743     0.42367743
    -0.42367743     0.42367743     0.00000000
New lattice vectors in NEW alat (for information only):
    -0.50000000     0.00000000     0.50000000
     0.00000000     0.50000000     0.50000000
    -0.50000000     0.50000000     0.00000000
Discrepancy in bohr =     0.000000    0.000000    0.000000
     new conv_thr            =            1.0E-10 Ry

     new unit-cell volume =    262.83290 a.u.^3 (    38.94782 Ang^3 )
     density =      2.39485 g/cm^3

CELL_PARAMETERS (alat= 12.00000000)
  -0.423677433   0.000000000   0.423677433
   0.000000000   0.423677433   0.423677433
  -0.423677433   0.423677433   0.000000000

ATOMIC_POSITIONS (alat)
Si            0.0000000000        0.0000000000        0.0000000000    0   0   0
Si            0.2118387163        0.2118387163        0.2118387163    0   0   0



     Writing output data file ./outdir/si.save/
     NEW-OLD atomic charge density approx. for the potential

     total cpu time spent up to now is        4.4 secs

     Self-consistent Calculation

     iteration #  1     ecut=    30.00 Ry     beta= 0.70
     Davidson diagonalization with overlap
     ethr =  1.00E-06,  avg # of iterations =  1.0

     Threshold (ethr) on eigenvalues was too large:
     Diagonalizing with lowered threshold

     Davidson diagonalization with overlap
     ethr =  1.59E-08,  avg # of iterations =  2.8

     total cpu time spent up to now is        4.5 secs

     total energy              =     -15.87477733 Ry
     Harris-Foulkes estimate   =     -15.87477818 Ry
     estimated scf accuracy    <       0.00000170 Ry

[...]

     convergence has been achieved in   5 iterations

     Forces acting on atoms (cartesian axes, Ry/au):

     atom    1 type  1   force =     0.00000000    0.00000000    0.00000000
     atom    2 type  1   force =    -0.00000000   -0.00000000   -0.00000000

     Total force =     0.000000     Total SCF correction =     0.000000


     Computing stress (Cartesian axis) and pressure

          total   stress  (Ry/bohr**3)                   (kbar)     P=        0.03
   0.00000019   0.00000000   0.00000000            0.03        0.00        0.00
   0.00000000   0.00000019  -0.00000000            0.00        0.03       -0.00
   0.00000000   0.00000000   0.00000019            0.00        0.00        0.03

ibrav =      2
 celldm(1) =     10.16825838
Input lattice vectors:
    -0.42367743     0.00000000     0.42367743
     0.00000000     0.42367743     0.42367743
    -0.42367743     0.42367743     0.00000000
New lattice vectors in INITIAL alat:
    -0.42367743     0.00000000     0.42367743
     0.00000000     0.42367743     0.42367743
    -0.42367743     0.42367743     0.00000000
New lattice vectors in NEW alat (for information only):
    -0.50000000     0.00000000     0.50000000
     0.00000000     0.50000000     0.50000000
    -0.50000000     0.50000000     0.00000000
Discrepancy in bohr =     0.000000    0.000000    0.000000

     bfgs converged in   8 scf cycles and   7 bfgs steps
     (criteria: energy <  1.0E-05 Ry, force <  1.0E-04Ry/Bohr, cell <  5.0E-01kbar)

     End of BFGS Geometry Optimization

     Final enthalpy =     -15.8747775020 Ry
Begin final coordinates
     new unit-cell volume =    262.83290 a.u.^3 (    38.94782 Ang^3 )
     density =      2.39485 g/cm^3

CELL_PARAMETERS (alat= 12.00000000)
  -0.423677433   0.000000000   0.423677433
   0.000000000   0.423677433   0.423677433
  -0.423677433   0.423677433   0.000000000

ATOMIC_POSITIONS (alat)
Si            0.0000000000        0.0000000000        0.0000000000    0   0   0
Si            0.2118387163        0.2118387163        0.2118387163    0   0   0
End final coordinates



     Writing output data file ./outdir/si.save/

     Final scf calculation at the relaxed structure.
     The G-vectors are recalculated for the final unit cell
     Results may differ from those at the preceding step.

     Parallelization info
     --------------------
     sticks:   dense  smooth     PW     G-vecs:    dense   smooth      PW
     Min          53      53     17                  727      727     132
     Max          56      56     18                  728      728     134
     Sum         433     433    139                 5817     5817    1067



     bravais-lattice index     =            2
     lattice parameter (alat)  =      12.0000  a.u.
     unit-cell volume          =     262.8329 (a.u.)^3
     number of atoms/cell      =            2
     number of atomic types    =            1
     number of electrons       =         8.00
     number of Kohn-Sham states=            4
     kinetic-energy cutoff     =      30.0000  Ry
     charge density cutoff     =     120.0000  Ry
     convergence threshold     =      1.0E-10
     mixing beta               =       0.7000
     number of iterations used =            8  plain     mixing
     Exchange-correlation= SLA-PZ-NOGX-NOGC
                           (   1   1   0   0   0   0   0)

     celldm(1)=  12.000000  celldm(2)=   0.000000  celldm(3)=   0.000000
     celldm(4)=   0.000000  celldm(5)=   0.000000  celldm(6)=   0.000000

     crystal axes: (cart. coord. in units of alat)
               a(1) = (  -0.423677   0.000000   0.423677 )  
               a(2) = (   0.000000   0.423677   0.423677 )  
               a(3) = (  -0.423677   0.423677   0.000000 )  

     reciprocal axes: (cart. coord. in units 2 pi/alat)
               b(1) = ( -1.180143 -1.180143  1.180143 )  
               b(2) = (  1.180143  1.180143  1.180143 )  
               b(3) = ( -1.180143  1.180143 -1.180143 )  


     PseudoPot. # 1 for Si read from file:
     ../pseudo/Si.pz-hgh.UPF
     MD5 check sum: cb84f9316d534d44e00c22e249e735ab
     Pseudo is Norm-conserving, Zval =  4.0
     Generated in analytical, separable form
     Using radial grid of 1141 points,  3 beta functions with: 
                l(1) =   0
                l(2) =   0
                l(3) =   1

     atomic species   valence    mass     pseudopotential
        Si             4.00    28.08550     Si( 1.00)

     48 Sym. Ops., with inversion, found (24 have fractional translation)



   Cartesian axes

     site n.     atom                  positions (alat units)
         1           Si  tau(   1) = (   0.0000000   0.0000000   0.0000000  )
         2           Si  tau(   2) = (   0.2118387   0.2118387   0.2118387  )

     number of k points=    47
                       cart. coord. in units 2pi/alat
        k(    1) = (   0.0000000   0.0000000   0.0000000), wk =   0.0020000
        k(    2) = (  -0.1180143   0.1180143  -0.1180143), wk =   0.0160000
        k(    3) = (  -0.2360286   0.2360286  -0.2360286), wk =   0.0160000
        k(    4) = (  -0.3540429   0.3540429  -0.3540429), wk =   0.0160000
        k(    5) = (  -0.4720572   0.4720572  -0.4720572), wk =   0.0160000
        k(    6) = (   0.5900716  -0.5900716   0.5900716), wk =   0.0080000
        k(    7) = (   0.0000000   0.2360286   0.0000000), wk =   0.0120000
        k(    8) = (  -0.1180143   0.3540429  -0.1180143), wk =   0.0480000
        k(    9) = (  -0.2360286   0.4720572  -0.2360286), wk =   0.0480000
        k(   10) = (  -0.3540429   0.5900716  -0.3540429), wk =   0.0480000
        k(   11) = (   0.7080859  -0.4720572   0.7080859), wk =   0.0480000
        k(   12) = (   0.5900716  -0.3540429   0.5900716), wk =   0.0480000
        k(   13) = (   0.4720572  -0.2360286   0.4720572), wk =   0.0480000
        k(   14) = (   0.3540429  -0.1180143   0.3540429), wk =   0.0480000
        k(   15) = (   0.2360286   0.0000000   0.2360286), wk =   0.0240000
        k(   16) = (   0.0000000   0.4720572   0.0000000), wk =   0.0120000
        k(   17) = (  -0.1180143   0.5900716  -0.1180143), wk =   0.0480000
        k(   18) = (  -0.2360286   0.7080859  -0.2360286), wk =   0.0480000
        k(   19) = (   0.8261002  -0.3540429   0.8261002), wk =   0.0480000
        k(   20) = (   0.7080859  -0.2360286   0.7080859), wk =   0.0480000
        k(   21) = (   0.5900716  -0.1180143   0.5900716), wk =   0.0480000
        k(   22) = (   0.4720572   0.0000000   0.4720572), wk =   0.0240000
        k(   23) = (   0.0000000   0.7080859   0.0000000), wk =   0.0120000
        k(   24) = (  -0.1180143   0.8261002  -0.1180143), wk =   0.0480000
        k(   25) = (   0.9441145  -0.2360286   0.9441145), wk =   0.0480000
        k(   26) = (   0.8261002  -0.1180143   0.8261002), wk =   0.0480000
        k(   27) = (   0.7080859   0.0000000   0.7080859), wk =   0.0240000
        k(   28) = (   0.0000000   0.9441145   0.0000000), wk =   0.0120000
        k(   29) = (   1.0621288  -0.1180143   1.0621288), wk =   0.0480000
        k(   30) = (   0.9441145   0.0000000   0.9441145), wk =   0.0240000
        k(   31) = (   0.0000000  -1.1801431   0.0000000), wk =   0.0060000
        k(   32) = (  -0.2360286   0.4720572   0.0000000), wk =   0.0480000
        k(   33) = (  -0.3540429   0.5900716  -0.1180143), wk =   0.0960000
        k(   34) = (   0.7080859  -0.4720572   0.9441145), wk =   0.0960000
        k(   35) = (   0.5900716  -0.3540429   0.8261002), wk =   0.0480000
        k(   36) = (  -0.2360286   0.7080859   0.0000000), wk =   0.0480000
        k(   37) = (   0.8261002  -0.3540429   1.0621288), wk =   0.0960000
        k(   38) = (   0.7080859  -0.2360286   0.9441145), wk =   0.0960000
        k(   39) = (   0.5900716  -0.1180143   0.8261002), wk =   0.0960000
        k(   40) = (   0.4720572   0.0000000   0.7080859), wk =   0.0480000
        k(   41) = (   0.9441145  -0.2360286   1.1801431), wk =   0.0480000
        k(   42) = (   0.8261002  -0.1180143   1.0621288), wk =   0.0960000
        k(   43) = (   0.7080859  -0.0000000   0.9441145), wk =   0.0480000
        k(   44) = (  -0.2360286  -1.1801431   0.0000000), wk =   0.0240000
        k(   45) = (   0.7080859  -0.2360286   1.1801431), wk =   0.0480000
        k(   46) = (   0.5900716  -0.1180143   1.0621288), wk =   0.0480000
        k(   47) = (  -0.4720572  -1.1801431   0.0000000), wk =   0.0240000

     Dense  grid:     5817 G-vectors     FFT dimensions: (  32,  32,  32)

     Estimated max dynamical RAM per process >       1.51 MB

     Estimated total dynamical RAM >      12.04 MB

     Initial potential from superposition of free atoms

     Starting from uniform charge
     Starting wfcs are random

     total cpu time spent up to now is        4.9 secs

     Self-consistent Calculation

     iteration #  1     ecut=    30.00 Ry     beta= 0.70
     Davidson diagonalization with overlap
     ethr =  1.00E-06,  avg # of iterations = 11.7

     total cpu time spent up to now is        5.0 secs

     total energy              =     -15.69976151 Ry
     Harris-Foulkes estimate   =     -16.75541988 Ry
     estimated scf accuracy    <       1.86346851 Ry

     iteration #  2     ecut=    30.00 Ry     beta= 0.70
     Davidson diagonalization with overlap
     ethr =  1.00E-02,  avg # of iterations =  2.0

     total cpu time spent up to now is        5.1 secs

     total energy              =     -15.86871576 Ry
     Harris-Foulkes estimate   =     -15.87066875 Ry
     estimated scf accuracy    <       0.01806207 Ry

     iteration #  3     ecut=    30.00 Ry     beta= 0.70
     Davidson diagonalization with overlap
     ethr =  2.26E-04,  avg # of iterations =  2.7

     total cpu time spent up to now is        5.2 secs

     total energy              =     -15.87330814 Ry
     Harris-Foulkes estimate   =     -15.87304924 Ry
     estimated scf accuracy    <       0.00084898 Ry

     iteration #  4     ecut=    30.00 Ry     beta= 0.70
     Davidson diagonalization with overlap
     ethr =  1.06E-05,  avg # of iterations =  1.8

     total cpu time spent up to now is        5.2 secs

     total energy              =     -15.87339515 Ry
     Harris-Foulkes estimate   =     -15.87339935 Ry
     estimated scf accuracy    <       0.00001282 Ry

     iteration #  5     ecut=    30.00 Ry     beta= 0.70
     Davidson diagonalization with overlap
     ethr =  1.60E-07,  avg # of iterations =  2.5

     total cpu time spent up to now is        5.3 secs

     total energy              =     -15.87340000 Ry
     Harris-Foulkes estimate   =     -15.87340001 Ry
     estimated scf accuracy    <       0.00000003 Ry

     iteration #  6     ecut=    30.00 Ry     beta= 0.70
     Davidson diagonalization with overlap
     ethr =  3.92E-10,  avg # of iterations =  3.6

     total cpu time spent up to now is        5.3 secs

     total energy              =     -15.87340006 Ry
     Harris-Foulkes estimate   =     -15.87340006 Ry
     estimated scf accuracy    <          9.0E-10 Ry

     iteration #  7     ecut=    30.00 Ry     beta= 0.70
     Davidson diagonalization with overlap
     ethr =  1.13E-11,  avg # of iterations =  2.5

     total cpu time spent up to now is        5.4 secs

     total energy              =     -15.87340006 Ry
     Harris-Foulkes estimate   =     -15.87340006 Ry
     estimated scf accuracy    <          4.3E-10 Ry

     iteration #  8     ecut=    30.00 Ry     beta= 0.70
     Davidson diagonalization with overlap
     ethr =  5.43E-12,  avg # of iterations =  2.0

     total cpu time spent up to now is        5.4 secs

     End of self-consistent calculation

          k = 0.0000 0.0000 0.0000 (   725 PWs)   bands (ev):

    -5.8449   6.3121   6.3121   6.3121

          k =-0.1180 0.1180-0.1180 (   728 PWs)   bands (ev):

    -5.7110   5.1495   6.1083   6.1083

          k =-0.2360 0.2360-0.2360 (   730 PWs)   bands (ev):

    -5.3151   3.2525   5.7199   5.7199

          k =-0.3540 0.3540-0.3540 (   745 PWs)   bands (ev):

    -4.6832   1.4279   5.3795   5.3795

          k =-0.4721 0.4721-0.4721 (   739 PWs)   bands (ev):

    -3.9114  -0.0873   5.1645   5.1645

          k = 0.5901-0.5901 0.5901 (   718 PWs)   bands (ev):

    -3.4385  -0.8115   5.0926   5.0926

          k = 0.0000 0.2360 0.0000 (   733 PWs)   bands (ev):

    -5.6660   5.3766   5.7172   5.7172

          k =-0.1180 0.3540-0.1180 (   729 PWs)   bands (ev):

    -5.3563   3.8310   5.2725   5.4535

          k =-0.2360 0.4721-0.2360 (   729 PWs)   bands (ev):

    -4.7987   2.0312   4.9484   5.0102

          k =-0.3540 0.5901-0.3540 (   736 PWs)   bands (ev):

    -4.0530   0.4180   4.5891   4.7999

          k = 0.7081-0.4721 0.7081 (   734 PWs)   bands (ev):

    -3.3853  -0.6546   4.2909   4.8364

          k = 0.5901-0.3540 0.5901 (   732 PWs)   bands (ev):

    -3.5607  -0.3959   4.1568   5.0428

          k = 0.4721-0.2360 0.4721 (   739 PWs)   bands (ev):

    -4.3166   0.9253   4.2140   5.3862

          k = 0.3540-0.1180 0.3540 (   730 PWs)   bands (ev):

    -5.0115   2.6153   4.4905   5.8019

          k = 0.2360 0.0000 0.2360 (   729 PWs)   bands (ev):

    -5.4892   4.2603   5.1110   6.1349

          k = 0.0000 0.4721 0.0000 (   725 PWs)   bands (ev):

    -5.1331   3.6824   4.7839   4.7839

          k =-0.1180 0.5901-0.1180 (   727 PWs)   bands (ev):

    -4.6558   2.4080   4.2626   4.4282

          k =-0.2360 0.7081-0.2360 (   725 PWs)   bands (ev):

    -3.9619   0.9313   3.6167   4.2663

          k = 0.8261-0.3540 0.8261 (   726 PWs)   bands (ev):

    -3.2046  -0.2924   3.0932   4.3131

          k = 0.7081-0.2360 0.7081 (   729 PWs)   bands (ev):

    -3.0434  -0.5107   2.7835   4.5593

          k = 0.5901-0.1180 0.5901 (   734 PWs)   bands (ev):

    -3.7231   0.5129   2.7545   4.9682

          k = 0.4721 0.0000 0.4721 (   732 PWs)   bands (ev):

    -4.4623   1.7850   3.2121   5.4521

          k = 0.0000 0.7081 0.0000 (   721 PWs)   bands (ev):

    -4.2589   1.8678   4.0255   4.0255

          k =-0.1180 0.8261-0.1180 (   730 PWs)   bands (ev):

    -3.6306   0.8430   3.3702   3.8163

          k = 0.9441-0.2360 0.9441 (   729 PWs)   bands (ev):

    -2.8573  -0.1885   2.5065   3.8243

          k = 0.8261-0.1180 0.8261 (   721 PWs)   bands (ev):

    -2.4176  -0.6844   1.9311   4.0465

          k = 0.7081 0.0000 0.7081 (   728 PWs)   bands (ev):

    -2.9745  -0.0784   1.9020   4.4541

          k = 0.0000 0.9441 0.0000 (   729 PWs)   bands (ev):

    -3.0683   0.0727   3.5498   3.5498

          k = 1.0621-0.1180 1.0621 (   732 PWs)   bands (ev):

    -2.3203  -0.7844   2.9310   3.5004

          k = 0.9441 0.0000 0.9441 (   728 PWs)   bands (ev):

    -1.8216  -1.2190   2.1077   3.6727

          k = 0.0000-1.1801 0.0000 (   740 PWs)   bands (ev):

    -1.6026  -1.6026   3.3885   3.3885

          k =-0.2360 0.4721 0.0000 (   723 PWs)   bands (ev):

    -4.9634   2.9062   4.1637   5.3218

          k =-0.3540 0.5901-0.1180 (   729 PWs)   bands (ev):

    -4.3356   1.4633   3.5649   4.9339

          k = 0.7081-0.4721 0.9441 (   729 PWs)   bands (ev):

    -3.5647   0.0594   3.3352   4.5714

          k = 0.5901-0.3540 0.8261 (   730 PWs)   bands (ev):

    -3.0848  -0.6449   3.2769   4.4283

          k =-0.2360 0.7081 0.0000 (   722 PWs)   bands (ev):

    -4.1045   1.4998   3.4174   4.1695

          k = 0.8261-0.3540 1.0621 (   725 PWs)   bands (ev):

    -3.3635   0.3714   2.7802   3.8259

          k = 0.7081-0.2360 0.9441 (   728 PWs)   bands (ev):

    -2.6880  -0.5236   2.3607   3.7681

          k = 0.5901-0.1180 0.8261 (   726 PWs)   bands (ev):

    -2.8970  -0.2542   2.2008   4.0171

          k = 0.4721 0.0000 0.7081 (   732 PWs)   bands (ev):

    -3.6572   0.7229   2.5053   4.4734

          k = 0.9441-0.2360 1.1801 (   735 PWs)   bands (ev):

    -2.9449  -0.0124   2.9952   3.3323

          k = 0.8261-0.1180 1.0621 (   731 PWs)   bands (ev):

    -2.1828  -0.8036   2.2580   3.2379

          k = 0.7081-0.0000 0.9441 (   719 PWs)   bands (ev):

    -2.1815  -0.7816   1.8236   3.5171

          k =-0.2360-1.1801 0.0000 (   726 PWs)   bands (ev):

    -1.5448  -1.5448   2.9509   2.9509

          k = 0.7081-0.2360 1.1801 (   737 PWs)   bands (ev):

    -2.6101  -0.3171   2.1986   3.2202

          k = 0.5901-0.1180 1.0621 (   728 PWs)   bands (ev):

    -2.0809  -0.8389   2.0336   2.9586

          k =-0.4721-1.1801 0.0000 (   726 PWs)   bands (ev):

    -1.4422  -1.4422   2.4071   2.4071

     highest occupied level (ev):     6.3121

!    total energy              =     -15.87340006 Ry
     Harris-Foulkes estimate   =     -15.87340006 Ry
     estimated scf accuracy    <          5.0E-12 Ry

     The total energy is the sum of the following terms:

     one-electron contribution =       4.83866846 Ry
     hartree contribution      =       1.07111937 Ry
     xc contribution           =      -4.83067436 Ry
     ewald contribution        =     -16.95251353 Ry

     convergence has been achieved in   8 iterations

     Forces acting on atoms (cartesian axes, Ry/au):

     atom    1 type  1   force =     0.00000000    0.00000000    0.00000000
     atom    2 type  1   force =     0.00000000    0.00000000    0.00000000

     Total force =     0.000000     Total SCF correction =     0.000000


     Computing stress (Cartesian axis) and pressure

          total   stress  (Ry/bohr**3)                   (kbar)     P=       -1.12
  -0.00000762   0.00000000   0.00000000           -1.12        0.00        0.00
   0.00000000  -0.00000762   0.00000000            0.00       -1.12        0.00
   0.00000000   0.00000000  -0.00000762            0.00        0.00       -1.12


     Writing output data file ./outdir/si.save/

     init_run     :      0.11s CPU      0.11s WALL (       2 calls)
     electrons    :      4.33s CPU      4.52s WALL (       9 calls)
     update_pot   :      0.25s CPU      0.25s WALL (       7 calls)
     forces       :      0.14s CPU      0.14s WALL (       9 calls)
     stress       :      0.33s CPU      0.33s WALL (       9 calls)

     Called by init_run:
     wfcinit      :      0.04s CPU      0.04s WALL (       2 calls)
     potinit      :      0.03s CPU      0.03s WALL (       2 calls)
     hinit0       :      0.04s CPU      0.04s WALL (       2 calls)

     Called by electrons:
     c_bands      :      3.73s CPU      3.90s WALL (      66 calls)
     sum_band     :      0.56s CPU      0.58s WALL (      66 calls)
     v_of_rho     :      0.02s CPU      0.02s WALL (      74 calls)
     mix_rho      :      0.01s CPU      0.01s WALL (      66 calls)

     Called by c_bands:
     init_us_2    :      0.12s CPU      0.13s WALL (    7144 calls)
     cegterg      :      3.62s CPU      3.79s WALL (    3102 calls)

     Called by sum_band:

     Called by *egterg:
     h_psi        :      3.06s CPU      3.20s WALL (   11829 calls)
     g_psi        :      0.01s CPU      0.01s WALL (    8633 calls)
     cdiaghg      :      0.22s CPU      0.23s WALL (   11359 calls)

     Called by h_psi:
     h_psi:calbec :      0.13s CPU      0.13s WALL (   11829 calls)
     vloc_psi     :      2.86s CPU      3.00s WALL (   11829 calls)
     add_vuspsi   :      0.05s CPU      0.06s WALL (   11829 calls)

     General routines
     calbec       :      0.14s CPU      0.15s WALL (   13944 calls)
     fft          :      0.02s CPU      0.02s WALL (     266 calls)
     ffts         :      0.00s CPU      0.00s WALL (      66 calls)
     fftw         :      3.07s CPU      3.21s WALL (   95100 calls)

     Parallel routines
     fft_scatt_xy :      0.32s CPU      0.34s WALL (   95432 calls)
     fft_scatt_yz :      0.80s CPU      0.84s WALL (   95432 calls)

     PWSCF        :      5.30s CPU      5.50s WALL


   This run was terminated on:  23: 4:55  16May2020            

=------------------------------------------------------------------------------=
   JOB DONE.
=------------------------------------------------------------------------------=
