
     Program PWSCF v.6.5 starts on 16May2020 at 23:22:39 

     This program is part of the open-source Quantum ESPRESSO suite
     for quantum simulation of materials; please cite
         "P. Giannozzi et al., J. Phys.:Condens. Matter 21 395502 (2009);
         "P. Giannozzi et al., J. Phys.:Condens. Matter 29 465901 (2017);
          URL http://www.quantum-espresso.org", 
     in publications or presentations arising from this work. More details at
     http://www.quantum-espresso.org/quote

     Parallel version (MPI), running on     8 processors

     MPI processes distributed on     1 nodes
     R & G space division:  proc/nbgrp/npool/nimage =       8
     Reading input from si.0_scf.in

     Current dimensions of program PWSCF are:
     Max number of different atomic species (ntypx) = 10
     Max number of k-points (npk) =  40000
     Max angular momentum in pseudopotentials (lmaxx) =  3

     Subspace diagonalization in iterative solution of the eigenvalue problem:
     a serial algorithm will be used

     Message from routine setup:
     no reason to have ecutrho>4*ecutwfc

     Parallelization info
     --------------------
     sticks:   dense  smooth     PW     G-vecs:    dense   smooth      PW
     Min         143      72     23                 3188     1136     204
     Max         144      73     24                 3190     1137     206
     Sum        1147     583    187                25509     9089    1639



     bravais-lattice index     =            2
     lattice parameter (alat)  =      10.1683  a.u.
     unit-cell volume          =     262.8329 (a.u.)^3
     number of atoms/cell      =            2
     number of atomic types    =            1
     number of electrons       =         8.00
     number of Kohn-Sham states=            8
     kinetic-energy cutoff     =      40.0000  Ry
     charge density cutoff     =     320.0000  Ry
     convergence threshold     =      1.0E-08
     mixing beta               =       0.7000
     number of iterations used =            8  plain     mixing
     Exchange-correlation= SLA-PZ-NOGX-NOGC
                           (   1   1   0   0   0   0   0)

     celldm(1)=  10.168258  celldm(2)=   0.000000  celldm(3)=   0.000000
     celldm(4)=   0.000000  celldm(5)=   0.000000  celldm(6)=   0.000000

     crystal axes: (cart. coord. in units of alat)
               a(1) = (  -0.500000   0.000000   0.500000 )  
               a(2) = (   0.000000   0.500000   0.500000 )  
               a(3) = (  -0.500000   0.500000   0.000000 )  

     reciprocal axes: (cart. coord. in units 2 pi/alat)
               b(1) = ( -1.000000 -1.000000  1.000000 )  
               b(2) = (  1.000000  1.000000  1.000000 )  
               b(3) = ( -1.000000  1.000000 -1.000000 )  


     PseudoPot. # 1 for Si read from file:
     ../pseudo/Si.pz-hgh.UPF
     MD5 check sum: cb84f9316d534d44e00c22e249e735ab
     Pseudo is Norm-conserving, Zval =  4.0
     Generated in analytical, separable form
     Using radial grid of 1141 points,  3 beta functions with: 
                l(1) =   0
                l(2) =   0
                l(3) =   1

     atomic species   valence    mass     pseudopotential
        Si             4.00    28.08550     Si( 1.00)

     48 Sym. Ops., with inversion, found (24 have fractional translation)



   Cartesian axes

     site n.     atom                  positions (alat units)
         1           Si  tau(   1) = (   0.0000000   0.0000000   0.0000000  )
         2           Si  tau(   2) = (   0.2500000   0.2500000   0.2500000  )

     number of k points=    29  Fermi-Dirac smearing, width (Ry)=  0.0010
                       cart. coord. in units 2pi/alat
        k(    1) = (   0.0000000   0.0000000   0.0000000), wk =   0.0039062
        k(    2) = (  -0.1250000   0.1250000  -0.1250000), wk =   0.0312500
        k(    3) = (  -0.2500000   0.2500000  -0.2500000), wk =   0.0312500
        k(    4) = (  -0.3750000   0.3750000  -0.3750000), wk =   0.0312500
        k(    5) = (   0.5000000  -0.5000000   0.5000000), wk =   0.0156250
        k(    6) = (   0.0000000   0.2500000   0.0000000), wk =   0.0234375
        k(    7) = (  -0.1250000   0.3750000  -0.1250000), wk =   0.0937500
        k(    8) = (  -0.2500000   0.5000000  -0.2500000), wk =   0.0937500
        k(    9) = (   0.6250000  -0.3750000   0.6250000), wk =   0.0937500
        k(   10) = (   0.5000000  -0.2500000   0.5000000), wk =   0.0937500
        k(   11) = (   0.3750000  -0.1250000   0.3750000), wk =   0.0937500
        k(   12) = (   0.2500000   0.0000000   0.2500000), wk =   0.0468750
        k(   13) = (   0.0000000   0.5000000   0.0000000), wk =   0.0234375
        k(   14) = (  -0.1250000   0.6250000  -0.1250000), wk =   0.0937500
        k(   15) = (   0.7500000  -0.2500000   0.7500000), wk =   0.0937500
        k(   16) = (   0.6250000  -0.1250000   0.6250000), wk =   0.0937500
        k(   17) = (   0.5000000   0.0000000   0.5000000), wk =   0.0468750
        k(   18) = (   0.0000000   0.7500000   0.0000000), wk =   0.0234375
        k(   19) = (   0.8750000  -0.1250000   0.8750000), wk =   0.0937500
        k(   20) = (   0.7500000   0.0000000   0.7500000), wk =   0.0468750
        k(   21) = (   0.0000000  -1.0000000   0.0000000), wk =   0.0117188
        k(   22) = (  -0.2500000   0.5000000   0.0000000), wk =   0.0937500
        k(   23) = (   0.6250000  -0.3750000   0.8750000), wk =   0.1875000
        k(   24) = (   0.5000000  -0.2500000   0.7500000), wk =   0.0937500
        k(   25) = (   0.7500000  -0.2500000   1.0000000), wk =   0.0937500
        k(   26) = (   0.6250000  -0.1250000   0.8750000), wk =   0.1875000
        k(   27) = (   0.5000000   0.0000000   0.7500000), wk =   0.0937500
        k(   28) = (  -0.2500000  -1.0000000   0.0000000), wk =   0.0468750
        k(   29) = (  -0.5000000  -1.0000000   0.0000000), wk =   0.0234375

     Dense  grid:    25509 G-vectors     FFT dimensions: (  48,  48,  48)

     Smooth grid:     9089 G-vectors     FFT dimensions: (  32,  32,  32)

     Estimated max dynamical RAM per process >       3.38 MB

     Estimated total dynamical RAM >      27.01 MB

     Initial potential from superposition of free atoms

     Starting from uniform charge
     Starting wfcs are random

     total cpu time spent up to now is        0.1 secs

     Self-consistent Calculation

     iteration #  1     ecut=    40.00 Ry     beta= 0.70
     Davidson diagonalization with overlap
     ethr =  1.00E-02,  avg # of iterations =  7.3

     total cpu time spent up to now is        0.3 secs

     total energy              =     -15.70123979 Ry
     Harris-Foulkes estimate   =     -16.75410283 Ry
     estimated scf accuracy    <       1.85732086 Ry

     iteration #  2     ecut=    40.00 Ry     beta= 0.70
     Davidson diagonalization with overlap
     ethr =  1.00E-02,  avg # of iterations =  2.0

     total cpu time spent up to now is        0.4 secs

     total energy              =     -15.87249775 Ry
     Harris-Foulkes estimate   =     -15.87419754 Ry
     estimated scf accuracy    <       0.01760271 Ry

     iteration #  3     ecut=    40.00 Ry     beta= 0.70
     Davidson diagonalization with overlap
     ethr =  2.20E-04,  avg # of iterations =  3.1

     total cpu time spent up to now is        0.4 secs

     total energy              =     -15.87429216 Ry
     Harris-Foulkes estimate   =     -15.87398994 Ry
     estimated scf accuracy    <       0.00073967 Ry

     iteration #  4     ecut=    40.00 Ry     beta= 0.70
     Davidson diagonalization with overlap
     ethr =  9.25E-06,  avg # of iterations =  2.9

     total cpu time spent up to now is        0.5 secs

     total energy              =     -15.87440730 Ry
     Harris-Foulkes estimate   =     -15.87440872 Ry
     estimated scf accuracy    <       0.00000928 Ry

     iteration #  5     ecut=    40.00 Ry     beta= 0.70
     Davidson diagonalization with overlap
     ethr =  1.16E-07,  avg # of iterations =  2.8

     total cpu time spent up to now is        0.6 secs

     total energy              =     -15.87441168 Ry
     Harris-Foulkes estimate   =     -15.87441194 Ry
     estimated scf accuracy    <       0.00000076 Ry

     iteration #  6     ecut=    40.00 Ry     beta= 0.70
     Davidson diagonalization with overlap
     ethr =  9.48E-09,  avg # of iterations =  2.0

     total cpu time spent up to now is        0.7 secs

     End of self-consistent calculation

          k = 0.0000 0.0000 0.0000 (  1139 PWs)   bands (ev):

    -5.8440   6.3076   6.3076   6.3076   8.8763   8.8763   8.8763   9.7502

          k =-0.1250 0.1250-0.1250 (  1131 PWs)   bands (ev):

    -5.6351   4.6861   6.0124   6.0124   8.8139   9.3090   9.3090  11.0735

          k =-0.2500 0.2500-0.2500 (  1122 PWs)   bands (ev):

    -5.0247   2.3141   5.5340   5.5340   8.3272   9.8253   9.8253  13.2442

          k =-0.3750 0.3750-0.3750 (  1131 PWs)   bands (ev):

    -4.1042   0.2465   5.2034   5.2034   7.9571   9.7491   9.7491  14.0749

          k = 0.5000-0.5000 0.5000 (  1158 PWs)   bands (ev):

    -3.4379  -0.8117   5.0905   5.0905   7.8277   9.6287   9.6287  13.8959

          k = 0.0000 0.2500 0.0000 (  1134 PWs)   bands (ev):

    -5.5648   4.9775   5.4786   5.4786   8.2845  10.0389  10.0389  10.7545

          k =-0.1250 0.3750-0.1250 (  1124 PWs)   bands (ev):

    -5.0848   3.0456   4.9564   5.0387   8.4162  10.0534  10.8094  11.0219

          k =-0.2500 0.5000-0.2500 (  1119 PWs)   bands (ev):

    -4.2476   0.9359   4.4338   4.6855   8.5138   9.9595  10.7885  11.7544

          k = 0.6250-0.3750 0.6250 (  1125 PWs)   bands (ev):

    -3.3530  -0.5737   3.9769   4.7139   8.4657   9.8049  10.4083  13.6799

          k = 0.5000-0.2500 0.5000 (  1131 PWs)   bands (ev):

    -3.6086  -0.1893   3.7870   5.0198   8.6496   9.9023  10.1736  14.2035

          k = 0.3750-0.1250 0.3750 (  1115 PWs)   bands (ev):

    -4.5625   1.6122   3.9341   5.5237   9.0298   9.9968  10.1455  12.6035

          k = 0.2500 0.0000 0.2500 (  1121 PWs)   bands (ev):

    -5.2908   3.5976   4.6257   6.0145   9.3807   9.4452   9.6516  11.8810

          k = 0.0000 0.5000 0.0000 (  1118 PWs)   bands (ev):

    -4.7368   2.7778   4.3710   4.3710   7.3547   9.3685  12.1159  12.1159

          k =-0.1250 0.6250-0.1250 (  1120 PWs)   bands (ev):

    -4.0089   1.3250   3.5607   4.0468   7.5743   9.1271  12.3475  12.6239

          k = 0.7500-0.2500 0.7500 (  1121 PWs)   bands (ev):

    -3.0534  -0.1603   2.6699   4.0519   7.7353  10.7149  12.0894  12.2609

          k = 0.6250-0.1250 0.6250 (  1121 PWs)   bands (ev):

    -2.8380  -0.4310   2.1943   4.3800   8.0732  11.7587  11.8184  13.2912

          k = 0.5000 0.0000 0.5000 (  1125 PWs)   bands (ev):

    -3.7471   0.7663   2.4337   4.9543   8.7127  11.1343  11.4203  12.4664

          k = 0.0000 0.7500 0.0000 (  1118 PWs)   bands (ev):

    -3.3932   0.5139   3.6389   3.6389   6.8103   7.7310  14.4127  14.4127

          k = 0.8750-0.1250 0.8750 (  1119 PWs)   bands (ev):

    -2.4722  -0.5918   2.7659   3.5617   7.0863   8.1903  14.6393  14.7128

          k = 0.7500 0.0000 0.7500 (  1135 PWs)   bands (ev):

    -2.0096  -1.0041   1.8585   3.8264   7.4040  10.3964  13.8461  14.3438

          k = 0.0000-1.0000 0.0000 (  1106 PWs)   bands (ev):

    -1.6023  -1.6023   3.3880   3.3880   6.8924   6.8924  16.4970  16.4970

          k =-0.2500 0.5000 0.0000 (  1115 PWs)   bands (ev):

    -4.4823   1.9798   3.5100   4.8478   8.7164  10.2214  10.4587  11.8450

          k = 0.6250-0.3750 0.8750 (  1124 PWs)   bands (ev):

    -3.5681   0.3867   2.8933   4.3269   9.1452   9.8396  11.3170  12.2739

          k = 0.5000-0.2500 0.7500 (  1118 PWs)   bands (ev):

    -2.8888  -0.5946   2.7670   4.0883   9.3637   9.3755  12.2518  13.4282

          k = 0.7500-0.2500 1.0000 (  1129 PWs)   bands (ev):

    -3.1869   0.2916   2.8425   3.4657   8.1881   8.8738  12.0894  14.3589

          k = 0.6250-0.1250 0.8750 (  1123 PWs)   bands (ev):

    -2.2823  -0.7005   2.1139   3.2565   8.6280  10.5436  11.6061  13.7816

          k = 0.5000 0.0000 0.7500 (  1120 PWs)   bands (ev):

    -2.6419  -0.3310   1.9393   3.6463   9.1222  10.8362  11.5186  13.3535

          k =-0.2500-1.0000 0.0000 (  1126 PWs)   bands (ev):

    -1.5174  -1.5174   2.7852   2.7852   8.1972   8.1972  14.1979  14.1979

          k =-0.5000-1.0000 0.0000 (  1124 PWs)   bands (ev):

    -1.4232  -1.4232   2.3240   2.3240  10.5179  10.5179  11.3386  11.3386

     the Fermi energy is     6.5512 ev

!    total energy              =     -15.87441180 Ry
     Harris-Foulkes estimate   =     -15.87441180 Ry
     estimated scf accuracy    <          7.8E-09 Ry

     The total energy is the sum of the following terms:

     one-electron contribution =       4.83713366 Ry
     hartree contribution      =       1.07227183 Ry
     xc contribution           =      -4.83130379 Ry
     ewald contribution        =     -16.95251350 Ry
     smearing contrib. (-TS)   =      -0.00000000 Ry

     convergence has been achieved in   6 iterations

     Writing output data file ./outdir/si.save/

     init_run     :      0.04s CPU      0.04s WALL (       1 calls)
     electrons    :      0.50s CPU      0.53s WALL (       1 calls)

     Called by init_run:
     wfcinit      :      0.02s CPU      0.02s WALL (       1 calls)
     potinit      :      0.00s CPU      0.00s WALL (       1 calls)
     hinit0       :      0.01s CPU      0.01s WALL (       1 calls)

     Called by electrons:
     c_bands      :      0.43s CPU      0.45s WALL (       6 calls)
     sum_band     :      0.06s CPU      0.07s WALL (       6 calls)
     v_of_rho     :      0.01s CPU      0.01s WALL (       7 calls)
     mix_rho      :      0.00s CPU      0.00s WALL (       6 calls)

     Called by c_bands:
     init_us_2    :      0.01s CPU      0.01s WALL (     377 calls)
     cegterg      :      0.42s CPU      0.44s WALL (     174 calls)

     Called by sum_band:

     Called by *egterg:
     h_psi        :      0.34s CPU      0.35s WALL (     786 calls)
     g_psi        :      0.00s CPU      0.00s WALL (     583 calls)
     cdiaghg      :      0.05s CPU      0.05s WALL (     757 calls)

     Called by h_psi:
     h_psi:calbec :      0.01s CPU      0.01s WALL (     786 calls)
     vloc_psi     :      0.32s CPU      0.33s WALL (     786 calls)
     add_vuspsi   :      0.01s CPU      0.01s WALL (     786 calls)

     General routines
     calbec       :      0.01s CPU      0.01s WALL (     786 calls)
     fft          :      0.01s CPU      0.01s WALL (      32 calls)
     ffts         :      0.00s CPU      0.00s WALL (      13 calls)
     fftw         :      0.34s CPU      0.36s WALL (   10598 calls)
     interpolate  :      0.00s CPU      0.00s WALL (       7 calls)

     Parallel routines
     fft_scatt_xy :      0.04s CPU      0.04s WALL (   10643 calls)
     fft_scatt_yz :      0.09s CPU      0.09s WALL (   10643 calls)

     PWSCF        :      0.64s CPU      0.68s WALL


   This run was terminated on:  23:22:40  16May2020            

=------------------------------------------------------------------------------=
   JOB DONE.
=------------------------------------------------------------------------------=
