
     Program PWSCF v.6.5 starts on 16May2020 at 23:26:34 

     This program is part of the open-source Quantum ESPRESSO suite
     for quantum simulation of materials; please cite
         "P. Giannozzi et al., J. Phys.:Condens. Matter 21 395502 (2009);
         "P. Giannozzi et al., J. Phys.:Condens. Matter 29 465901 (2017);
          URL http://www.quantum-espresso.org", 
     in publications or presentations arising from this work. More details at
     http://www.quantum-espresso.org/quote

     Parallel version (MPI), running on     8 processors

     MPI processes distributed on     1 nodes
     R & G space division:  proc/nbgrp/npool/nimage =       8
     Reading input from si.2_bands.in

     Current dimensions of program PWSCF are:
     Max number of different atomic species (ntypx) = 10
     Max number of k-points (npk) =  40000
     Max angular momentum in pseudopotentials (lmaxx) =  3

     Atomic positions and unit cell read from directory:
     ./outdir/si.save/                                                                                                                                                                                                                                               


     Subspace diagonalization in iterative solution of the eigenvalue problem:
     a serial algorithm will be used

     Message from routine setup:
     no reason to have ecutrho>4*ecutwfc

     Parallelization info
     --------------------
     sticks:   dense  smooth     PW     G-vecs:    dense   smooth      PW
     Min         143      72     20                 3188     1136     181
     Max         144      73     21                 3190     1137     185
     Sum        1147     583    163                25509     9089    1459



     bravais-lattice index     =            2
     lattice parameter (alat)  =      10.1683  a.u.
     unit-cell volume          =     262.8329 (a.u.)^3
     number of atoms/cell      =            2
     number of atomic types    =            1
     number of electrons       =         8.00
     number of Kohn-Sham states=            8
     kinetic-energy cutoff     =      40.0000  Ry
     charge density cutoff     =     320.0000  Ry
     Exchange-correlation= SLA-PZ-NOGX-NOGC
                           (   1   1   0   0   0   0   0)

     celldm(1)=  10.168258  celldm(2)=   0.000000  celldm(3)=   0.000000
     celldm(4)=   0.000000  celldm(5)=   0.000000  celldm(6)=   0.000000

     crystal axes: (cart. coord. in units of alat)
               a(1) = (  -0.500000   0.000000   0.500000 )  
               a(2) = (   0.000000   0.500000   0.500000 )  
               a(3) = (  -0.500000   0.500000   0.000000 )  

     reciprocal axes: (cart. coord. in units 2 pi/alat)
               b(1) = ( -1.000000 -1.000000  1.000000 )  
               b(2) = (  1.000000  1.000000  1.000000 )  
               b(3) = ( -1.000000  1.000000 -1.000000 )  


     PseudoPot. # 1 for Si read from file:
     ../pseudo/Si.pz-hgh.UPF
     MD5 check sum: cb84f9316d534d44e00c22e249e735ab
     Pseudo is Norm-conserving, Zval =  4.0
     Generated in analytical, separable form
     Using radial grid of 1141 points,  3 beta functions with: 
                l(1) =   0
                l(2) =   0
                l(3) =   1

     atomic species   valence    mass     pseudopotential
        Si             4.00    28.08550     Si( 1.00)

     48 Sym. Ops., with inversion, found (24 have fractional translation)



   Cartesian axes

     site n.     atom                  positions (alat units)
         1           Si  tau(   1) = (   0.0000000   0.0000000   0.0000000  )
         2           Si  tau(   2) = (   0.2500000   0.2500000   0.2500000  )

     number of k points=    91
                       cart. coord. in units 2pi/alat
        k(    1) = (   0.5000000   0.5000000   0.5000000), wk =   0.0219780
        k(    2) = (   0.4750000   0.4750000   0.4750000), wk =   0.0219780
        k(    3) = (   0.4500000   0.4500000   0.4500000), wk =   0.0219780
        k(    4) = (   0.4250000   0.4250000   0.4250000), wk =   0.0219780
        k(    5) = (   0.4000000   0.4000000   0.4000000), wk =   0.0219780
        k(    6) = (   0.3750000   0.3750000   0.3750000), wk =   0.0219780
        k(    7) = (   0.3500000   0.3500000   0.3500000), wk =   0.0219780
        k(    8) = (   0.3250000   0.3250000   0.3250000), wk =   0.0219780
        k(    9) = (   0.3000000   0.3000000   0.3000000), wk =   0.0219780
        k(   10) = (   0.2750000   0.2750000   0.2750000), wk =   0.0219780
        k(   11) = (   0.2500000   0.2500000   0.2500000), wk =   0.0219780
        k(   12) = (   0.2250000   0.2250000   0.2250000), wk =   0.0219780
        k(   13) = (   0.2000000   0.2000000   0.2000000), wk =   0.0219780
        k(   14) = (   0.1750000   0.1750000   0.1750000), wk =   0.0219780
        k(   15) = (   0.1500000   0.1500000   0.1500000), wk =   0.0219780
        k(   16) = (   0.1250000   0.1250000   0.1250000), wk =   0.0219780
        k(   17) = (   0.1000000   0.1000000   0.1000000), wk =   0.0219780
        k(   18) = (   0.0750000   0.0750000   0.0750000), wk =   0.0219780
        k(   19) = (   0.0500000   0.0500000   0.0500000), wk =   0.0219780
        k(   20) = (   0.0250000   0.0250000   0.0250000), wk =   0.0219780
        k(   21) = (   0.0000000   0.0000000   0.0000000), wk =   0.0219780
        k(   22) = (   0.0333333   0.0000000   0.0000000), wk =   0.0219780
        k(   23) = (   0.0666667   0.0000000   0.0000000), wk =   0.0219780
        k(   24) = (   0.1000000   0.0000000   0.0000000), wk =   0.0219780
        k(   25) = (   0.1333333   0.0000000   0.0000000), wk =   0.0219780
        k(   26) = (   0.1666667   0.0000000   0.0000000), wk =   0.0219780
        k(   27) = (   0.2000000   0.0000000   0.0000000), wk =   0.0219780
        k(   28) = (   0.2333333   0.0000000   0.0000000), wk =   0.0219780
        k(   29) = (   0.2666667   0.0000000   0.0000000), wk =   0.0219780
        k(   30) = (   0.3000000   0.0000000   0.0000000), wk =   0.0219780
        k(   31) = (   0.3333333   0.0000000   0.0000000), wk =   0.0219780
        k(   32) = (   0.3666667   0.0000000   0.0000000), wk =   0.0219780
        k(   33) = (   0.4000000   0.0000000   0.0000000), wk =   0.0219780
        k(   34) = (   0.4333333   0.0000000   0.0000000), wk =   0.0219780
        k(   35) = (   0.4666667   0.0000000   0.0000000), wk =   0.0219780
        k(   36) = (   0.5000000   0.0000000   0.0000000), wk =   0.0219780
        k(   37) = (   0.5333333   0.0000000   0.0000000), wk =   0.0219780
        k(   38) = (   0.5666667   0.0000000   0.0000000), wk =   0.0219780
        k(   39) = (   0.6000000   0.0000000   0.0000000), wk =   0.0219780
        k(   40) = (   0.6333333   0.0000000   0.0000000), wk =   0.0219780
        k(   41) = (   0.6666667   0.0000000   0.0000000), wk =   0.0219780
        k(   42) = (   0.7000000   0.0000000   0.0000000), wk =   0.0219780
        k(   43) = (   0.7333333   0.0000000   0.0000000), wk =   0.0219780
        k(   44) = (   0.7666667   0.0000000   0.0000000), wk =   0.0219780
        k(   45) = (   0.8000000   0.0000000   0.0000000), wk =   0.0219780
        k(   46) = (   0.8333333   0.0000000   0.0000000), wk =   0.0219780
        k(   47) = (   0.8666667   0.0000000   0.0000000), wk =   0.0219780
        k(   48) = (   0.9000000   0.0000000   0.0000000), wk =   0.0219780
        k(   49) = (   0.9333333   0.0000000   0.0000000), wk =   0.0219780
        k(   50) = (   0.9666667   0.0000000   0.0000000), wk =   0.0219780
        k(   51) = (   1.0000000   0.0000000   0.0000000), wk =   0.0219780
        k(   52) = (   1.0000000   0.0250000   0.0250000), wk =   0.0219780
        k(   53) = (   1.0000000   0.0500000   0.0500000), wk =   0.0219780
        k(   54) = (   1.0000000   0.0750000   0.0750000), wk =   0.0219780
        k(   55) = (   1.0000000   0.1000000   0.1000000), wk =   0.0219780
        k(   56) = (   1.0000000   0.1250000   0.1250000), wk =   0.0219780
        k(   57) = (   1.0000000   0.1500000   0.1500000), wk =   0.0219780
        k(   58) = (   1.0000000   0.1750000   0.1750000), wk =   0.0219780
        k(   59) = (   1.0000000   0.2000000   0.2000000), wk =   0.0219780
        k(   60) = (   1.0000000   0.2250000   0.2250000), wk =   0.0219780
        k(   61) = (   1.0000000   0.2500000   0.2500000), wk =   0.0219780
        k(   62) = (   0.9666667   0.2416667   0.2416667), wk =   0.0219780
        k(   63) = (   0.9333333   0.2333333   0.2333333), wk =   0.0219780
        k(   64) = (   0.9000000   0.2250000   0.2250000), wk =   0.0219780
        k(   65) = (   0.8666667   0.2166667   0.2166667), wk =   0.0219780
        k(   66) = (   0.8333333   0.2083333   0.2083333), wk =   0.0219780
        k(   67) = (   0.8000000   0.2000000   0.2000000), wk =   0.0219780
        k(   68) = (   0.7666667   0.1916667   0.1916667), wk =   0.0219780
        k(   69) = (   0.7333333   0.1833333   0.1833333), wk =   0.0219780
        k(   70) = (   0.7000000   0.1750000   0.1750000), wk =   0.0219780
        k(   71) = (   0.6666667   0.1666667   0.1666667), wk =   0.0219780
        k(   72) = (   0.6333333   0.1583333   0.1583333), wk =   0.0219780
        k(   73) = (   0.6000000   0.1500000   0.1500000), wk =   0.0219780
        k(   74) = (   0.5666667   0.1416667   0.1416667), wk =   0.0219780
        k(   75) = (   0.5333333   0.1333333   0.1333333), wk =   0.0219780
        k(   76) = (   0.5000000   0.1250000   0.1250000), wk =   0.0219780
        k(   77) = (   0.4666667   0.1166667   0.1166667), wk =   0.0219780
        k(   78) = (   0.4333333   0.1083333   0.1083333), wk =   0.0219780
        k(   79) = (   0.4000000   0.1000000   0.1000000), wk =   0.0219780
        k(   80) = (   0.3666667   0.0916667   0.0916667), wk =   0.0219780
        k(   81) = (   0.3333333   0.0833333   0.0833333), wk =   0.0219780
        k(   82) = (   0.3000000   0.0750000   0.0750000), wk =   0.0219780
        k(   83) = (   0.2666667   0.0666667   0.0666667), wk =   0.0219780
        k(   84) = (   0.2333333   0.0583333   0.0583333), wk =   0.0219780
        k(   85) = (   0.2000000   0.0500000   0.0500000), wk =   0.0219780
        k(   86) = (   0.1666667   0.0416667   0.0416667), wk =   0.0219780
        k(   87) = (   0.1333333   0.0333333   0.0333333), wk =   0.0219780
        k(   88) = (   0.1000000   0.0250000   0.0250000), wk =   0.0219780
        k(   89) = (   0.0666667   0.0166667   0.0166667), wk =   0.0219780
        k(   90) = (   0.0333333   0.0083333   0.0083333), wk =   0.0219780
        k(   91) = (   0.0000000   0.0000000   0.0000000), wk =   0.0219780

     Dense  grid:    25509 G-vectors     FFT dimensions: (  48,  48,  48)

     Smooth grid:     9089 G-vectors     FFT dimensions: (  32,  32,  32)

     Estimated max dynamical RAM per process >       1.95 MB

     Estimated total dynamical RAM >      15.58 MB

     The potential is recalculated from file :
     ./outdir/si.save/charge-density

     Starting wfcs are random

     Band Structure Calculation
     Davidson diagonalization with overlap

     ethr =  1.25E-10,  avg # of iterations = 23.1

     total cpu time spent up to now is        1.5 secs

     End of band structure calculation

          k = 0.5000 0.5000 0.5000 (  1158 PWs)   bands (ev):

    -3.4376  -0.8115   5.0908   5.0908   7.8279   9.6288   9.6288  13.8958

          k = 0.4750 0.4750 0.4750 (  1131 PWs)   bands (ev):

    -3.4751  -0.7583   5.0955   5.0955   7.8332   9.6345   9.6345  13.9048

          k = 0.4500 0.4500 0.4500 (  1131 PWs)   bands (ev):

    -3.5791  -0.6070   5.1090   5.1090   7.8488   9.6509   9.6509  13.9304

          k = 0.4250 0.4250 0.4250 (  1131 PWs)   bands (ev):

    -3.7306  -0.3769   5.1316   5.1316   7.8748   9.6770   9.6770  13.9709

          k = 0.4000 0.4000 0.4000 (  1125 PWs)   bands (ev):

    -3.9105  -0.0873   5.1632   5.1632   7.9110   9.7108   9.7108  14.0220

          k = 0.3750 0.3750 0.3750 (  1131 PWs)   bands (ev):

    -4.1039   0.2467   5.2037   5.2037   7.9573   9.7492   9.7492  14.0748

          k = 0.3500 0.3500 0.3500 (  1131 PWs)   bands (ev):

    -4.3010   0.6148   5.2531   5.2531   8.0134   9.7882   9.7882  14.1090

          k = 0.3250 0.3250 0.3250 (  1131 PWs)   bands (ev):

    -4.4951   1.0100   5.3112   5.3112   8.0791   9.8222   9.8222  14.0792

          k = 0.3000 0.3000 0.3000 (  1125 PWs)   bands (ev):

    -4.6822   1.4274   5.3777   5.3777   8.1541   9.8446   9.8446  13.9201

          k = 0.2750 0.2750 0.2750 (  1119 PWs)   bands (ev):

    -4.8593   1.8632   5.4523   5.4523   8.2372   9.8482   9.8482  13.6227

          k = 0.2500 0.2500 0.2500 (  1122 PWs)   bands (ev):

    -5.0245   2.3143   5.5343   5.5343   8.3274   9.8255   9.8255  13.2443

          k = 0.2250 0.2250 0.2250 (  1119 PWs)   bands (ev):

    -5.1763   2.7780   5.6231   5.6231   8.4236   9.7722   9.7722  12.8286

          k = 0.2000 0.2000 0.2000 (  1122 PWs)   bands (ev):

    -5.3140   3.2512   5.7173   5.7173   8.5237   9.6877   9.6877  12.3951

          k = 0.1750 0.1750 0.1750 (  1128 PWs)   bands (ev):

    -5.4366   3.7304   5.8152   5.8152   8.6250   9.5765   9.5765  11.9534

          k = 0.1500 0.1500 0.1500 (  1131 PWs)   bands (ev):

    -5.5437   4.2108   5.9147   5.9147   8.7236   9.4468   9.4468  11.5103

          k = 0.1250 0.1250 0.1250 (  1131 PWs)   bands (ev):

    -5.6349   4.6864   6.0127   6.0127   8.8141   9.3092   9.3092  11.0738

          k = 0.1000 0.1000 0.1000 (  1125 PWs)   bands (ev):

    -5.7098   5.1470   6.1051   6.1051   8.8882   9.1748   9.1748  10.6569

          k = 0.0750 0.0750 0.0750 (  1118 PWs)   bands (ev):

    -5.7683   5.5763   6.1866   6.1866   8.9338   9.0548   9.0548  10.2825

          k = 0.0500 0.0500 0.0500 (  1115 PWs)   bands (ev):

    -5.8102   5.9462   6.2515   6.2515   8.9370   8.9594   8.9594   9.9868

          k = 0.0250 0.0250 0.0250 (  1133 PWs)   bands (ev):

    -5.8354   6.2098   6.2934   6.2934   8.8978   8.8978   8.9014   9.8073

          k = 0.0000 0.0000 0.0000 (  1139 PWs)   bands (ev):

    -5.8438   6.3079   6.3079   6.3079   8.8764   8.8764   8.8764   9.7505

          k = 0.0333 0.0000 0.0000 (  1139 PWs)   bands (ev):

    -5.8388   6.2748   6.2861   6.2861   8.8633   8.9043   8.9043   9.7829

          k = 0.0667 0.0000 0.0000 (  1119 PWs)   bands (ev):

    -5.8239   6.1792   6.2237   6.2237   8.8245   8.9851   8.9851   9.8757

          k = 0.1000 0.0000 0.0000 (  1119 PWs)   bands (ev):

    -5.7990   6.0304   6.1269   6.1269   8.7623   9.1118   9.1118  10.0173

          k = 0.1333 0.0000 0.0000 (  1127 PWs)   bands (ev):

    -5.7642   5.8399   6.0048   6.0048   8.6797   9.2756   9.2756  10.1921

          k = 0.1667 0.0000 0.0000 (  1139 PWs)   bands (ev):

    -5.7195   5.6181   5.8652   5.8652   8.5806   9.4683   9.4683  10.3817

          k = 0.2000 0.0000 0.0000 (  1127 PWs)   bands (ev):

    -5.6649   5.3740   5.7148   5.7148   8.4687   9.6840   9.6840  10.5639

          k = 0.2333 0.0000 0.0000 (  1135 PWs)   bands (ev):

    -5.6004   5.1130   5.5583   5.5583   8.3476   9.9171   9.9171  10.7083

          k = 0.2667 0.0000 0.0000 (  1134 PWs)   bands (ev):

    -5.5262   4.8402   5.3993   5.3993   8.2205  10.1642  10.1642  10.7776

          k = 0.3000 0.0000 0.0000 (  1134 PWs)   bands (ev):

    -5.4422   4.5586   5.2404   5.2404   8.0903  10.4224  10.4224  10.7427

          k = 0.3333 0.0000 0.0000 (  1130 PWs)   bands (ev):

    -5.3484   4.2704   5.0836   5.0836   7.9594  10.6077  10.6896  10.6896

          k = 0.3667 0.0000 0.0000 (  1130 PWs)   bands (ev):

    -5.2450   3.9775   4.9303   4.9303   7.8299  10.4033  10.9642  10.9642

          k = 0.4000 0.0000 0.0000 (  1114 PWs)   bands (ev):

    -5.1321   3.6811   4.7818   4.7818   7.7034  10.1602  11.2454  11.2454

          k = 0.4333 0.0000 0.0000 (  1118 PWs)   bands (ev):

    -5.0096   3.3818   4.6386   4.6386   7.5812   9.8993  11.5313  11.5313

          k = 0.4667 0.0000 0.0000 (  1118 PWs)   bands (ev):

    -4.8777   3.0806   4.5016   4.5016   7.4647   9.6329  11.8218  11.8218

          k = 0.5000 0.0000 0.0000 (  1118 PWs)   bands (ev):

    -4.7365   2.7781   4.3713   4.3713   7.3548   9.3686  12.1161  12.1161

          k = 0.5333 0.0000 0.0000 (  1114 PWs)   bands (ev):

    -4.5861   2.4747   4.2480   4.2480   7.2523   9.1110  12.4139  12.4139

          k = 0.5667 0.0000 0.0000 (  1106 PWs)   bands (ev):

    -4.4266   2.1710   4.1323   4.1323   7.1582   8.8630  12.7148  12.7148

          k = 0.6000 0.0000 0.0000 (  1118 PWs)   bands (ev):

    -4.2581   1.8673   4.0242   4.0242   7.0726   8.6263  13.0178  13.0178

          k = 0.6333 0.0000 0.0000 (  1118 PWs)   bands (ev):

    -4.0808   1.5642   3.9241   3.9241   6.9965   8.4027  13.3240  13.3240

          k = 0.6667 0.0000 0.0000 (  1118 PWs)   bands (ev):

    -3.8948   1.2621   3.8322   3.8322   6.9302   8.1928  13.6325  13.6325

          k = 0.7000 0.0000 0.0000 (  1118 PWs)   bands (ev):

    -3.7003   0.9614   3.7486   3.7486   6.8742   7.9971  13.9434  13.9434

          k = 0.7333 0.0000 0.0000 (  1118 PWs)   bands (ev):

    -3.4974   0.6627   3.6735   3.6735   6.8290   7.8160  14.2563  14.2563

          k = 0.7667 0.0000 0.0000 (  1118 PWs)   bands (ev):

    -3.2864   0.3664   3.6070   3.6070   6.7947   7.6497  14.5705  14.5705

          k = 0.8000 0.0000 0.0000 (  1126 PWs)   bands (ev):

    -3.0675   0.0729   3.5492   3.5492   6.7717   7.4981  14.8866  14.8866

          k = 0.8333 0.0000 0.0000 (  1126 PWs)   bands (ev):

    -2.8409  -0.2172   3.5001   3.5001   6.7607   7.3613  15.2033  15.2033

          k = 0.8667 0.0000 0.0000 (  1122 PWs)   bands (ev):

    -2.6069  -0.5035   3.4599   3.4599   6.7616   7.2389  15.5191  15.5191

          k = 0.9000 0.0000 0.0000 (  1114 PWs)   bands (ev):

    -2.3657  -0.7856   3.4286   3.4286   6.7751   7.1312  15.8300  15.8300

          k = 0.9333 0.0000 0.0000 (  1114 PWs)   bands (ev):

    -2.1176  -1.0629   3.4062   3.4062   6.8012   7.0376  16.1267  16.1267

          k = 0.9667 0.0000 0.0000 (  1114 PWs)   bands (ev):

    -1.8629  -1.3352   3.3927   3.3927   6.8402   6.9581  16.3800  16.3800

          k = 1.0000 0.0000 0.0000 (  1106 PWs)   bands (ev):

    -1.6020  -1.6020   3.3883   3.3883   6.8925   6.8925  16.4972  16.4972

          k = 1.0000 0.0250 0.0250 (  1118 PWs)   bands (ev):

    -1.6040  -1.5960   3.3481   3.3928   6.8976   6.9505  16.4362  16.4634

          k = 1.0000 0.0500 0.0500 (  1124 PWs)   bands (ev):

    -1.6104  -1.5780   3.2358   3.4063   6.9132   7.1168  16.2695  16.3668

          k = 1.0000 0.0750 0.0750 (  1128 PWs)   bands (ev):

    -1.6220  -1.5480   3.0712   3.4287   6.9394   7.3728  16.0306  16.2185

          k = 1.0000 0.1000 0.1000 (  1126 PWs)   bands (ev):

    -1.6401  -1.5060   2.8761   3.4601   6.9759   7.6974  15.7489  16.0318

          k = 1.0000 0.1250 0.1250 (  1130 PWs)   bands (ev):

    -1.6666  -1.4521   2.6693   3.5002   7.0226   8.0737  15.4435  15.8181

          k = 1.0000 0.1500 0.1500 (  1126 PWs)   bands (ev):

    -1.7039  -1.3862   2.4654   3.5490   7.0795   8.4894  15.1262  15.5865

          k = 1.0000 0.1750 0.1750 (  1132 PWs)   bands (ev):

    -1.7546  -1.3084   2.2751   3.6063   7.1462   8.9349  14.8041  15.3437

          k = 1.0000 0.2000 0.2000 (  1128 PWs)   bands (ev):

    -1.8211  -1.2187   2.1069   3.6718   7.2228   9.4046  14.4817  15.0047

          k = 1.0000 0.2250 0.2250 (  1136 PWs)   bands (ev):

    -1.9056  -1.1172   1.9667   3.7454   7.3089   9.8931  14.1617  14.6690

          k = 1.0000 0.2500 0.2500 (  1135 PWs)   bands (ev):

    -2.0093  -1.0038   1.8587   3.8267   7.4041  10.3965  13.8463  14.3441

          k = 0.9667 0.2417 0.2417 (  1135 PWs)   bands (ev):

    -2.0141  -1.0050   1.9057   3.8028   7.3774  10.2332  13.8683  14.2226

          k = 0.9333 0.2333 0.2333 (  1130 PWs)   bands (ev):

    -2.1038  -0.9263   1.9827   3.7881   7.3638  10.0830  13.7774  14.0081

          k = 0.9000 0.2250 0.2250 (  1131 PWs)   bands (ev):

    -2.2551  -0.7864   2.0849   3.7827   7.3629   9.9471  13.6407  13.7868

          k = 0.8667 0.2167 0.2167 (  1129 PWs)   bands (ev):

    -2.4411  -0.6085   2.2083   3.7867   7.3745   9.8264  13.4880  13.5647

          k = 0.8333 0.2083 0.2083 (  1121 PWs)   bands (ev):

    -2.6449  -0.4067   2.3495   3.8003   7.3980   9.7219  13.3306  13.3433

          k = 0.8000 0.2000 0.2000 (  1126 PWs)   bands (ev):

    -2.8567  -0.1883   2.5054   3.8233   7.4324   9.6348  13.1230  13.1723

          k = 0.7667 0.1917 0.1917 (  1122 PWs)   bands (ev):

    -3.0709   0.0429   2.6739   3.8559   7.4765   9.5670  12.9045  13.0154

          k = 0.7333 0.1833 0.1833 (  1120 PWs)   bands (ev):

    -3.2840   0.2848   2.8526   3.8982   7.5290   9.5200  12.6873  12.8592

          k = 0.7000 0.1750 0.1750 (  1120 PWs)   bands (ev):

    -3.4937   0.5360   3.0397   3.9500   7.5878   9.4959  12.4718  12.7034

          k = 0.6667 0.1667 0.1667 (  1115 PWs)   bands (ev):

    -3.6982   0.7959   3.2333   4.0114   7.6511   9.4969  12.2584  12.5471

          k = 0.6333 0.1583 0.1583 (  1113 PWs)   bands (ev):

    -3.8964   1.0639   3.4320   4.0821   7.7163   9.5249  12.0474  12.3885

          k = 0.6000 0.1500 0.1500 (  1112 PWs)   bands (ev):

    -4.0872   1.3394   3.6341   4.1623   7.7816   9.5812  11.8391  12.2261

          k = 0.5667 0.1417 0.1417 (  1120 PWs)   bands (ev):

    -4.2701   1.6222   3.8383   4.2515   7.8455   9.6660  11.6344  12.0575

          k = 0.5333 0.1333 0.1333 (  1120 PWs)   bands (ev):

    -4.4443   1.9120   4.0433   4.3498   7.9078   9.7779  11.4348  11.8812

          k = 0.5000 0.1250 0.1250 (  1116 PWs)   bands (ev):

    -4.6095   2.2084   4.2477   4.4568   7.9686   9.9123  11.2433  11.6958

          k = 0.4667 0.1167 0.1167 (  1120 PWs)   bands (ev):

    -4.7653   2.5110   4.4503   4.5722   8.0288  10.0596  11.0664  11.4996

          k = 0.4333 0.1083 0.1083 (  1122 PWs)   bands (ev):

    -4.9113   2.8193   4.6501   4.6957   8.0896  10.1975  10.9215  11.2927

          k = 0.4000 0.1000 0.1000 (  1117 PWs)   bands (ev):

    -5.0473   3.1328   4.8267   4.8457   8.1524  10.2722  10.8553  11.0756

          k = 0.3667 0.0917 0.0917 (  1120 PWs)   bands (ev):

    -5.1731   3.4506   4.9646   5.0360   8.2181  10.2278  10.8495  10.9113

          k = 0.3333 0.0833 0.0833 (  1122 PWs)   bands (ev):

    -5.2884   3.7718   5.1086   5.2197   8.2873  10.1040  10.6167  11.0294

          k = 0.3000 0.0750 0.0750 (  1128 PWs)   bands (ev):

    -5.3932   4.0953   5.2575   5.3956   8.3600   9.9533  10.3800  11.1210

          k = 0.2667 0.0667 0.0667 (  1130 PWs)   bands (ev):

    -5.4872   4.4191   5.4100   5.5620   8.4358   9.7965  10.1432  11.1191

          k = 0.2333 0.0583 0.0583 (  1129 PWs)   bands (ev):

    -5.5705   4.7408   5.5641   5.7175   8.5135   9.6414   9.9098  10.9974

          k = 0.2000 0.0500 0.0500 (  1133 PWs)   bands (ev):

    -5.6428   5.0570   5.7170   5.8599   8.5909   9.4914   9.6845  10.7872

          k = 0.1667 0.0417 0.0417 (  1130 PWs)   bands (ev):

    -5.7041   5.3626   5.8653   5.9873   8.6656   9.3483   9.4727  10.5384

          k = 0.1333 0.0333 0.0333 (  1119 PWs)   bands (ev):

    -5.7543   5.6498   6.0037   6.0971   8.7342   9.2135   9.2806  10.2894

          k = 0.1000 0.0250 0.0250 (  1117 PWs)   bands (ev):

    -5.7934   5.9070   6.1257   6.1866   8.7930   9.0893   9.1157  10.0680

          k = 0.0667 0.0167 0.0167 (  1123 PWs)   bands (ev):

    -5.8214   6.1169   6.2228   6.2531   8.8382   8.9819   8.9873   9.8956

          k = 0.0333 0.0083 0.0083 (  1139 PWs)   bands (ev):

    -5.8382   6.2578   6.2858   6.2940   8.8667   8.9049   8.9050   9.7873

          k = 0.0000 0.0000 0.0000 (  1139 PWs)   bands (ev):

    -5.8438   6.3079   6.3079   6.3079   8.8764   8.8764   8.8764   9.7505

     Writing output data file ./outdir/si.save/

     init_run     :      0.03s CPU      0.03s WALL (       1 calls)
     electrons    :      1.31s CPU      1.37s WALL (       1 calls)

     Called by init_run:
     wfcinit      :      0.00s CPU      0.00s WALL (       1 calls)
     potinit      :      0.00s CPU      0.00s WALL (       1 calls)
     hinit0       :      0.01s CPU      0.01s WALL (       1 calls)

     Called by electrons:
     c_bands      :      1.30s CPU      1.36s WALL (       1 calls)
     v_of_rho     :      0.00s CPU      0.00s WALL (       1 calls)

     Called by c_bands:
     init_us_2    :      0.00s CPU      0.00s WALL (      91 calls)
     cegterg      :      1.24s CPU      1.30s WALL (     134 calls)

     Called by sum_band:

     Called by *egterg:
     h_psi        :      0.89s CPU      0.93s WALL (    2331 calls)
     g_psi        :      0.00s CPU      0.00s WALL (    2106 calls)
     cdiaghg      :      0.20s CPU      0.20s WALL (    2197 calls)

     Called by h_psi:
     h_psi:calbec :      0.03s CPU      0.03s WALL (    2331 calls)
     vloc_psi     :      0.84s CPU      0.88s WALL (    2331 calls)
     add_vuspsi   :      0.02s CPU      0.02s WALL (    2331 calls)

     General routines
     calbec       :      0.03s CPU      0.03s WALL (    2331 calls)
     fft          :      0.00s CPU      0.00s WALL (       4 calls)
     ffts         :      0.00s CPU      0.00s WALL (       1 calls)
     fftw         :      0.78s CPU      0.82s WALL (   25514 calls)
     interpolate  :      0.00s CPU      0.00s WALL (       1 calls)
     davcio       :      0.00s CPU      0.00s WALL (     182 calls)

     Parallel routines
     fft_scatt_xy :      0.08s CPU      0.08s WALL (   25519 calls)
     fft_scatt_yz :      0.19s CPU      0.20s WALL (   25519 calls)

     PWSCF        :      1.47s CPU      1.55s WALL


   This run was terminated on:  23:26:35  16May2020            

=------------------------------------------------------------------------------=
   JOB DONE.
=------------------------------------------------------------------------------=
